(C) 2022 by FIZ Karlsruhe - Leibniz Institute for Information Infrastructure.  All rights reserved.
data_54662-ICSD
_database_code_ICSD 54662
_audit_creation_date 2023-02-01
_chemical_name_common 'Decalithium triphosphorus dodecasulfide bromide'
_chemical_formula_structural 'Li9.56 P3 S11.114 Br1.396'
_chemical_formula_sum 'Br1.396 Li9.56 P3 S11.114'
_chemical_name_structure_type Li10GeP2S12-frame#LGPS-type
_exptl_crystal_density_diffrn 2.16
_citation_title

;
Material search for a Li$_{10}$GeP$_2$S$_{12}$-type solid electrolyte in the
Li-P-S-X (X = Br, I) system via clarification of the
composition-structure-property relationships
;
loop_
_citation_id
_citation_journal_full
_citation_year
_citation_journal_volume
_citation_page_first
_citation_page_last
_citation_journal_id_ASTM
primary 'Chemistry of Materials' 2022 34 8237 8247 CMATEX
loop_
_citation_author_citation_id
_citation_author_name
primary 'Song, Subin'
primary 'Hori, Satoshi'
primary 'Li, Yuxiang'
primary 'Suzuki, Kota'
primary 'Matsui, Naoki'
primary 'Hirayama, Masaaki'
primary 'Saito, Takashi'
primary 'Kamiyama, Takashi'
primary 'Kanno, Ryoji'
_cell_length_a 8.76184(15)
_cell_length_b 8.76184(15)
_cell_length_c 12.5332(3)
_cell_angle_alpha 90.
_cell_angle_beta 90.
_cell_angle_gamma 90.
_cell_volume 962.16
_cell_formula_units_Z 2
_space_group_name_H-M_alt 'P 42/n m c S'
_space_group_IT_number 137
loop_
_space_group_symop_id
_space_group_symop_operation_xyz
1 '-y+1/2, -x+1/2, z+1/2'
2 'y+1/2, x+1/2, z+1/2'
3 '-y, -x, -z'
4 'y, x, -z'
5 'y+1/2, -x+1/2, z+1/2'
6 '-y+1/2, x+1/2, z+1/2'
7 'y, -x, -z'
8 '-y, x, -z'
9 'x+1/2, -y+1/2, -z+1/2'
10 '-x+1/2, y+1/2, -z+1/2'
11 'x, -y, z'
12 '-x, y, z'
13 '-x+1/2, -y+1/2, -z+1/2'
14 'x+1/2, y+1/2, -z+1/2'
15 '-x, -y, z'
16 'x, y, z'
loop_
_atom_type_symbol
_atom_type_oxidation_number
Li1+ 1
P5+ 5
S2- -2
Br1- -1
S2- -2
loop_
_atom_site_label
_atom_site_type_symbol
_atom_site_symmetry_multiplicity
_atom_site_Wyckoff_symbol
_atom_site_fract_x
_atom_site_fract_y
_atom_site_fract_z
_atom_site_B_iso_or_equiv
_atom_site_occupancy
Li1 Li1+ 16 h 0.227 0.312 -0.0286 5.76 0.51
Li2 Li1+ 4 d 0 0.5 0.969 10.26 0.55
Li3 Li1+ 16 h 0.276 0.269 0.128 11.05 0.35
Li4 Li1+ 4 c 0 0 0.239 11.84 0.79
P1 P5+ 4 d 0 0.5 0.7170(2) 3 1
P2 P5+ 2 b 0 0 0.5 3 1
S1 S2- 8 g 0 0.18685(15) 0.411193(15) 3 1
S2 S2- 8 g 0 0.29112(16) 0.09852(11) 4 0.8729(12)
S3 S2- 8 g 0 0.70714(15) 0.78444(9) 4 0.778(2)
Br1 Br1- 8 g 0 0.29112(16) 0.09852(11) 4 0.1271
Br2 Br1- 8 g 0 0.70714(15) 0.78444(9) 4 0.222
S4 S2- 2 a 0 0 0 4 0.510(2)
#End of TTdata_54662-ICSD
#
