(C) 2022 by FIZ Karlsruhe - Leibniz Institute for Information Infrastructure.  All rights reserved.
data_241439-ICSD
_database_code_ICSD 241439
_audit_creation_date 2017-08-01
_chemical_name_common 'Decalithium dodecathiogermanodiphosphate'
_chemical_formula_structural 'Li10 Ge P2 S12'
_chemical_formula_sum 'Ge1 Li10 P2 S12'
_chemical_name_structure_type Li10GeP2S12-frame#LGPS-type
_exptl_crystal_density_diffrn 2.05
_citation_title

;
Structural insights and 3D diffusion pathways within the lithium superionic
conductor Li10 Ge P2 S12
;
loop_
_citation_id
_citation_journal_full
_citation_year
_citation_journal_volume
_citation_page_first
_citation_page_last
_citation_journal_id_ASTM
primary 'Chemistry of Materials' 2016 28 5905 5915 CMATEX
loop_
_citation_author_citation_id
_citation_author_name
primary 'Weber, Dominik A.'
primary 'Senyshyn, Anatoliy'
primary 'Weldert, Kai S.'
primary 'Wenzel, Sebastian'
primary 'Zhang, Wenbo'
primary 'Kaiser, Rene'
primary 'Berendts, Stefan'
primary 'Janek, Juergen'
primary 'Zeier, Wolfgang G.'
_cell_length_a 8.7088(6)
_cell_length_b 8.7088(6)
_cell_length_c 12.605(1)
_cell_angle_alpha 90.
_cell_angle_beta 90.
_cell_angle_gamma 90.
_cell_volume 956.
_cell_formula_units_Z 2
_space_group_name_H-M_alt 'P 42/n m c Z'
_space_group_IT_number 137
loop_
_space_group_symop_id
_space_group_symop_operation_xyz
1 'y+1/2, x+1/2, -z+1/2'
2 '-y, x+1/2, -z+1/2'
3 'y+1/2, -x, -z+1/2'
4 '-y, -x, -z+1/2'
5 'x+1/2, y+1/2, -z'
6 '-x, y+1/2, -z'
7 'x+1/2, -y, -z'
8 '-x, -y, -z'
9 '-y+1/2, -x+1/2, z+1/2'
10 'y, -x+1/2, z+1/2'
11 '-y+1/2, x, z+1/2'
12 'y, x, z+1/2'
13 '-x+1/2, -y+1/2, z'
14 'x, -y+1/2, z'
15 '-x+1/2, y, z'
16 'x, y, z'
loop_
_atom_type_symbol
_atom_type_oxidation_number
Li1+ 1
Ge4+ 4
P5+ 5
S2- -2
loop_
_atom_site_label
_atom_site_type_symbol
_atom_site_symmetry_multiplicity
_atom_site_Wyckoff_symbol
_atom_site_fract_x
_atom_site_fract_y
_atom_site_fract_z
_atom_site_B_iso_or_equiv
_atom_site_occupancy
Li1 Li1+ 16 h 0.498(2) 0.013(2) 0.4469(13) 8.3(8) 0.50(1)
Li2 Li1+ 8 g 0.25 0.226(7) 0.195(2) 9.1(9) 0.54(1)
Li3 Li1+ 8 f 0.496(2) -0.004(2) 0.25 9.0(9) 0.62(3)
Li4 Li1+ 4 c 0.25 0.75 0.499(2) 7.0(9) 0.68(3)
Ge1 Ge4+ 4 d 0.25 0.25 0.9422(3) 3.4(8) 0.5
P1 P5+ 4 d 0.25 0.25 0.9422(3) 3.4(8) 0.5
P2 P5+ 2 b 0.25 0.75 0.75 4.1(2) 1.
S1 S2- 8 g 0.25 0.9392(7) 0.6600(5) 3.6(3) 1.
S2 S2- 8 g 0.25 0.0452(7) 0.3493(6) 3.6(3) 1.
S3 S2- 8 g 0.25 0.4446(8) 0.0395(5) 3.9(4) 1.
#End of TTdata_241439-ICSD
#
