(C) 2022 by FIZ Karlsruhe - Leibniz Institute for Information Infrastructure.  All rights reserved.
data_253900-ICSD
_database_code_ICSD 253900
_audit_creation_date 2018-02-01
_chemical_name_common 'Trilithium undecaoxo-gallotellurate(IV)'
_chemical_formula_structural 'Li3 Ga Te4 O11'
_chemical_formula_sum 'Ga1 Li3 O11 Te4'
_exptl_crystal_density_diffrn 5.22
_diffrn_ambient_temperature 298.
_citation_title

;
Syntheses, structures, and characterization of quaternary tellurites,
Li3MTe4O11 (M = Al, Ga, and Fe)
;
loop_
_citation_id
_citation_journal_full
_citation_year
_citation_journal_volume
_citation_page_first
_citation_page_last
_citation_journal_id_ASTM
primary 'Inorganic Chemistry' 2017 56 5873 5879 INOCAJ
loop_
_citation_author_citation_id
_citation_author_name
primary 'Lue, Minfeng'
primary 'Jo, Hongil'
primary 'Oh, Seung-Jin'
primary 'Lee, Suheon'
primary 'Choi, Kwang-Yong'
primary 'Yu, Yang'
primary 'Ok, Kang Min'
_cell_length_a 18.7906(10)
_cell_length_b 5.1841(2)
_cell_length_c 10.7786(5)
_cell_angle_alpha 90
_cell_angle_beta 109.726(4)
_cell_angle_gamma 90
_cell_volume 988.35
_cell_formula_units_Z 4
_space_group_name_H-M_alt 'C 1 2/c 1'
_space_group_IT_number 15
loop_
_space_group_symop_id
_space_group_symop_operation_xyz
1 'x, -y, z+1/2'
2 '-x, -y, -z'
3 '-x, y, -z+1/2'
4 'x, y, z'
5 'x+1/2, -y+1/2, z+1/2'
6 '-x+1/2, -y+1/2, -z'
7 '-x+1/2, y+1/2, -z+1/2'
8 'x+1/2, y+1/2, z'
loop_
_atom_type_symbol
_atom_type_oxidation_number
Te4+ 4
Ga3+ 3
O2- -2
Li1+ 1
loop_
_atom_site_label
_atom_site_type_symbol
_atom_site_symmetry_multiplicity
_atom_site_Wyckoff_symbol
_atom_site_fract_x
_atom_site_fract_y
_atom_site_fract_z
_atom_site_U_iso_or_equiv
_atom_site_occupancy
Te1 Te4+ 8 f 0.665366(19) 0.33437(6) 0.17008(3) 0.01117(12) 1
Te2 Te4+ 8 f 0.55606(2) 0.76199(6) -0.06245(4) 0.01683(14) 1
Ga1 Ga3+ 4 c 0.75 0.25 0.5 0.0093(3) 1
O1 O2- 8 f 0.6461(2) 0.8935(6) -0.0713(4) 0.0148(7) 1
O2 O2- 8 f 0.7241(2) 0.4320(6) 0.0694(3) 0.0116(6) 1
O3 O2- 8 f 0.7327(2) 0.4382(6) 0.3327(3) 0.0127(7) 1
O4 O2- 8 f 0.6103(2) 0.6448(7) 0.1520(4) 0.0194(8) 1
O5 O2- 8 f 0.5662(2) 0.4194(7) -0.0996(4) 0.0175(7) 1
O6 O2- 4 e 0.5 0.8761(11) -0.25 0.0322(14) 1
Li1 Li1+ 8 f 0.6721(7) 1.2531(17) -0.1149(11) 0.024(4) 1
Li2 Li1+ 8 f 0.5210(10) 0.263(3) -0.2704(19) 0.017(6) 0.5
loop_
_atom_site_aniso_label
_atom_site_aniso_type_symbol
_atom_site_aniso_U_11
_atom_site_aniso_U_22
_atom_site_aniso_U_33
_atom_site_aniso_U_12
_atom_site_aniso_U_13
_atom_site_aniso_U_23
Te1 Te4+ 0.01112(19) 0.01272(18) 0.00942(18) -0.00360(12) 0.00315(14)
-0.00034(11)
Te2 Te4+ 0.0093(2) 0.01303(18) 0.0293(2) -0.00017(12) 0.00802(17) -0.00332(13)
Ga1 Ga3+ 0.0094(4) 0.0092(3) 0.0082(4) 0.0002(3) 0.0018(3) -0.0001(2)
Li1 Li1+ 0.025(6) 0.019(4) 0.030(6) -0.003(4) 0.011(5) 0.001(4)
Li2 Li1+ 0.003(9) 0.014(8) 0.025(11) 0.003(6) -0.006(8) -0.009(7)
#End of TTdata_253900-ICSD
#
