(C) 2022 by FIZ Karlsruhe - Leibniz Institute for Information Infrastructure.  All rights reserved.
data_257947-ICSD
_database_code_ICSD 257947
_audit_creation_date 2018-02-01
_chemical_name_common 'Lithium tin silicon phosphorous sulfide'
_chemical_formula_structural 'Li10.5 (Sn0.2 Si0.8)1.5 P1.5 S12'
_chemical_formula_sum 'Li10.5 P1.5 S12 Si1.2 Sn0.3'
_chemical_name_structure_type Li10GeP2S12-frame#LGPS-type
_exptl_crystal_density_diffrn 2.
_citation_title

;
Superionic conductors: Li10+delta[SnySi1-y]1+deltaP2-deltaS12 with a
Li10GeP2S12-type structure in the Li3PS4-Li4SnS4-Li4SiS4 quasi-ternary system
;
loop_
_citation_id
_citation_journal_full
_citation_year
_citation_journal_volume
_citation_page_first
_citation_page_last
_citation_journal_id_ASTM
primary 'Chemistry of Materials' 2017 29 5858 5864 CMATEX
loop_
_citation_author_citation_id
_citation_author_name
primary 'Sun, Yulong'
primary 'Suzuki, Kota'
primary 'Hori, Satoshi'
primary 'Hirayama, Masaaki'
primary 'Kanno, Ryoji'
_cell_length_a 8.69204(6)
_cell_length_b 8.69204(6)
_cell_length_c 12.6166(2)
_cell_angle_alpha 90.
_cell_angle_beta 90.
_cell_angle_gamma 90.
_cell_volume 953.2
_cell_formula_units_Z 2
_space_group_name_H-M_alt 'P 42/n m c S'
_space_group_IT_number 137
loop_
_space_group_symop_id
_space_group_symop_operation_xyz
1 '-y+1/2, -x+1/2, z+1/2'
2 'y+1/2, x+1/2, z+1/2'
3 '-y, -x, -z'
4 'y, x, -z'
5 'y+1/2, -x+1/2, z+1/2'
6 '-y+1/2, x+1/2, z+1/2'
7 'y, -x, -z'
8 '-y, x, -z'
9 'x+1/2, -y+1/2, -z+1/2'
10 '-x+1/2, y+1/2, -z+1/2'
11 'x, -y, z'
12 '-x, y, z'
13 '-x+1/2, -y+1/2, -z+1/2'
14 'x+1/2, y+1/2, -z+1/2'
15 '-x, -y, z'
16 'x, y, z'
loop_
_atom_type_symbol
_atom_type_oxidation_number
Li1+ 1
Sn4+ 4
Si4+ 4
P5+ 5
S2- -2
loop_
_atom_site_label
_atom_site_type_symbol
_atom_site_symmetry_multiplicity
_atom_site_Wyckoff_symbol
_atom_site_fract_x
_atom_site_fract_y
_atom_site_fract_z
_atom_site_B_iso_or_equiv
_atom_site_occupancy
Li1 Li1+ 16 h 0.233(3) 0.263(3) 0.173(2) 8.68 0.51
Li2 Li1+ 4 d 0. 0.5 0.936(2) 5.52 1.
Li3 Li1+ 8 f 0.2435(17) 0.2435(17) 0. 9.54 0.75
Li4 Li1+ 4 c 0. 0. 0.243(3) 8.76 0.67
Sn1 Sn4+ 4 d 0. 0.5 0.6902(2) 1.68(7) 0.15
Si1 Si4+ 4 d 0. 0.5 0.6902(2) 1.68(7) 0.6
P1 P5+ 4 d 0. 0.5 0.6902(2) 1.68(7) 0.25
P2 P5+ 2 b 0. 0. 0.5 1.77(12) 1.
S1 S2- 8 g 0. 0.1890(2) 0.4059(2) 2.42(6) 1.
S2 S2- 8 g 0. 0.2955(2) 0.0972(2) 2.37(7) 1.
S3 S2- 8 g 0. 0.7014(2) 0.7920(2) 2.01(6) 1.
#End of TTdata_257947-ICSD
#
