(C) 2022 by FIZ Karlsruhe - Leibniz Institute for Information Infrastructure.  All rights reserved.
data_252040-ICSD
_database_code_ICSD 252040
_audit_creation_date 2016-02-01
_chemical_name_common 'Decalithium dodecathiostannodiphosphate'
_chemical_formula_structural 'Li9.81 Sn0.81 P2.19 S12'
_chemical_formula_sum 'Li9.81 P2.19 S12 Sn0.81'
_chemical_name_structure_type Li10GeP2S12-frame#LGPS-type
_exptl_crystal_density_diffrn 2.11
_diffrn_ambient_temperature 300.
_citation_title

;
Structure-property relationships in lithium superionic conductors having a
Li10GeP2S12-type structure
;
loop_
_citation_id
_citation_journal_full
_citation_year
_citation_journal_volume
_citation_page_first
_citation_page_last
_citation_journal_id_ASTM
primary

;
Acta Crystallographica, Section B: Structural Science, Crystal Engineering and
Materials
; 2015 71 727 736 ACSBDA
loop_
_citation_author_citation_id
_citation_author_name
primary 'Hori, Satoshi'
primary 'Taminato, Sou'
primary 'Suzuki, Kota'
primary 'Hirayama, Masaaki'
primary 'Kato, Yuki'
primary 'Kanno, Ryoji'
_cell_length_a 8.73764(3)
_cell_length_b 8.73764(3)
_cell_length_c 12.71660(7)
_cell_angle_alpha 90.
_cell_angle_beta 90.
_cell_angle_gamma 90.
_cell_volume 970.85
_cell_formula_units_Z 2
_space_group_name_H-M_alt 'P 42/n m c S'
_space_group_IT_number 137
loop_
_space_group_symop_id
_space_group_symop_operation_xyz
1 '-y+1/2, -x+1/2, z+1/2'
2 'y+1/2, x+1/2, z+1/2'
3 '-y, -x, -z'
4 'y, x, -z'
5 'y+1/2, -x+1/2, z+1/2'
6 '-y+1/2, x+1/2, z+1/2'
7 'y, -x, -z'
8 '-y, x, -z'
9 'x+1/2, -y+1/2, -z+1/2'
10 '-x+1/2, y+1/2, -z+1/2'
11 'x, -y, z'
12 '-x, y, z'
13 '-x+1/2, -y+1/2, -z+1/2'
14 'x+1/2, y+1/2, -z+1/2'
15 '-x, -y, z'
16 'x, y, z'
loop_
_atom_type_symbol
_atom_type_oxidation_number
Li1+ 1
Sn4+ 4
P5+ 5
S2- -2
loop_
_atom_site_label
_atom_site_type_symbol
_atom_site_symmetry_multiplicity
_atom_site_Wyckoff_symbol
_atom_site_fract_x
_atom_site_fract_y
_atom_site_fract_z
_atom_site_B_iso_or_equiv
_atom_site_occupancy
Li1 Li1+ 16 h 0.2562(4) 0.2740(4) 0.1866(4) 7.4(2) 0.473(5)
Li2 Li1+ 4 d 0 0.5 -0.0511(5) 7.9(2) 0.803(7)
Li3 Li1+ 8 f 0.2431(3) 0.2431(3) 0 17.6(5) 0.750(10)
Li4 Li1+ 4 c 0 0 0.2440(4) 5.7(2) 0.709(7)
Sn1 Sn4+ 4 d 0 0.5 0.68834(8) 2.14(2) 0.405
P1 P5+ 4 d 0 0.5 0.68834(8) 2.14(2) 0.595
P2 P5+ 2 b 0 0 0.5 2.33(3) 1
S1 S2- 8 g 0 0.18790(14) 0.40867(11) 2.19(4) 1
S2 S2- 8 g 0 0.29308(17) 0.10320(18) 3.83(4) 1
S3 S2- 8 g 0 0.70019(18) 0.78795(12) 2.52(4) 1
loop_
_atom_site_aniso_label
_atom_site_aniso_type_symbol
_atom_site_aniso_U_11
_atom_site_aniso_U_22
_atom_site_aniso_U_33
_atom_site_aniso_U_12
_atom_site_aniso_U_13
_atom_site_aniso_U_23
Li1 Li1+ 0.093(6) 0.081(5) 0.105(5) 0.005(3) 0.004(4) -0.016(4)
Li2 Li1+ 0.109(6) 0.041(4) 0.149(6) 0 0 0
Li3 Li1+ 0.085(4) 0.085(4) 0.499(15) -0.055(4) 0.121(4) -0.121(4)
Li4 Li1+ 0.036(6) 0.091(6) 0.090(5) 0 0 0
Sn1 Sn4+ 0.0296(9) 0.0326(9) 0.0193(7) 0 0 0
P1 P5+ 0.0296(9) 0.0326(9) 0.0193(7) 0 0 0
P2 P5+ 0.0268(7) 0.0268(7) 0.0349(14) 0 0 0
S1 S2- 0.0549(12) 0.0131(11) 0.0151(10) 0 0 0.0020(10)
S2 S2- 0.0545(14) 0.0411(11) 0.0500(12) 0 0 -0.0054(10)
S3 S2- 0.0389(13) 0.0319(10) 0.0251(12) 0 0 0.0047(11)
#End of TTdata_252040-ICSD
#
