(C) 2022 by FIZ Karlsruhe - Leibniz Institute for Information Infrastructure.  All rights reserved.
data_252038-ICSD
_database_code_ICSD 252038
_audit_creation_date 2016-02-01
_chemical_name_common 'Decalithium dodecathiogermanodiphosphate'
_chemical_formula_structural 'Li10.35 Si1.35 P1.65 S12'
_chemical_formula_sum 'Li10.35 P1.65 S12 Si1.35'
_chemical_name_structure_type Li10GeP2S12-frame#LGPS-type
_exptl_crystal_density_diffrn 1.86
_diffrn_ambient_temperature 800.
_citation_title

;
Structure-property relationships in lithium superionic conductors having a
Li10GeP2S12-type structure
;
loop_
_citation_id
_citation_journal_full
_citation_year
_citation_journal_volume
_citation_page_first
_citation_page_last
_citation_journal_id_ASTM
primary

;
Acta Crystallographica, Section B: Structural Science, Crystal Engineering and
Materials
; 2015 71 727 736 ACSBDA
loop_
_citation_author_citation_id
_citation_author_name
primary 'Hori, Satoshi'
primary 'Taminato, Sou'
primary 'Suzuki, Kota'
primary 'Hirayama, Masaaki'
primary 'Kato, Yuki'
primary 'Kanno, Ryoji'
_cell_length_a 8.76517(5)
_cell_length_b 8.76517(5)
_cell_length_c 12.67003(12)
_cell_angle_alpha 90.
_cell_angle_beta 90.
_cell_angle_gamma 90.
_cell_volume 973.42
_cell_formula_units_Z 2
_space_group_name_H-M_alt 'P 42/n m c S'
_space_group_IT_number 137
loop_
_space_group_symop_id
_space_group_symop_operation_xyz
1 '-y+1/2, -x+1/2, z+1/2'
2 'y+1/2, x+1/2, z+1/2'
3 '-y, -x, -z'
4 'y, x, -z'
5 'y+1/2, -x+1/2, z+1/2'
6 '-y+1/2, x+1/2, z+1/2'
7 'y, -x, -z'
8 '-y, x, -z'
9 'x+1/2, -y+1/2, -z+1/2'
10 '-x+1/2, y+1/2, -z+1/2'
11 'x, -y, z'
12 '-x, y, z'
13 '-x+1/2, -y+1/2, -z+1/2'
14 'x+1/2, y+1/2, -z+1/2'
15 '-x, -y, z'
16 'x, y, z'
loop_
_atom_type_symbol
_atom_type_oxidation_number
Li1+ 1
Si4+ 4
P5+ 5
S2- -2
loop_
_atom_site_label
_atom_site_type_symbol
_atom_site_symmetry_multiplicity
_atom_site_Wyckoff_symbol
_atom_site_fract_x
_atom_site_fract_y
_atom_site_fract_z
_atom_site_B_iso_or_equiv
_atom_site_occupancy
Li1 Li1+ 16 h 0.2505(8) 0.2752(7) 0.1938(6) 12.05178 0.434(6)
Li2 Li1+ 4 d 0 0.5 0.9499(4) 4.11743 0.883(8)
Li3 Li1+ 8 f 0.2408(3) 0.2408(3) 0 20.2803 0.904(13)
Li4 Li1+ 4 c 0 0 0.2408(6) 9.9402 0.747(8)
Si1 Si4+ 4 d 0 0.5 0.69087(15) 2.175236 0.675
P1 P5+ 4 d 0 0.5 0.69087(15) 2.175236 0.325
P2 P5+ 2 b 0 0 0.5 3.50034 1
S1 S2- 8 g 0 0.1873(2) 0.41033(16) 3.98171 1
S2 S2- 8 g 0 0.29969(18) 0.10290(15) 2.62142 1
S3 S2- 8 g 0 0.6901(2) 0.78983(14) 2.37275 1
loop_
_atom_site_aniso_label
_atom_site_aniso_type_symbol
_atom_site_aniso_U_11
_atom_site_aniso_U_22
_atom_site_aniso_U_33
_atom_site_aniso_U_12
_atom_site_aniso_U_13
_atom_site_aniso_U_23
Li1 Li1+ 0.0760384 0.0653586 0.316516 0.00814583 -0.00475192 -0.1223779
Li2 Li1+ 0.096951 0.0543131 0.00518259 0 0 0
Li3 Li1+ 0.1518534 0.1518534 0.466863 -0.1147635 0.0848626 -0.0848626
Li4 Li1+ 0.0978965 0.192836 0.0869573 0 0 0
Si1 Si4+ 0.0387135 0.0233575 0.0205797 0 0 0
P1 P5+ 0.0387135 0.0233575 0.0205797 0 0 0
P2 P5+ 0.0382157 0.0382157 0.0565679 0 0 0
S1 S2- 0.0842012 0.0312755 0.035813 0 0 0.001597217
S2 S2- 0.0479556 0.01721966 0.0344287 0 0 -0.01711837
S3 S2- 0.0390889 0.00750448 0.0435619 0 0 -0.00319567
#End of TTdata_252038-ICSD
#
