(C) 2022 by FIZ Karlsruhe - Leibniz Institute for Information Infrastructure.  All rights reserved.
data_5669-ICSD
_database_code_ICSD 5669
_audit_creation_date 2020-02-01
_chemical_name_common
'Lithium tin silicon phosphorus sulfide (10.35/0.27/1.08/1.65/12)'
_chemical_formula_structural 'Li10.35 (Sn0.2 Si0.8)1.35 P1.65 S12'
_chemical_formula_sum 'Li10.35 P1.65 S12 Si1.08 Sn0.27'
_chemical_name_structure_type Li10GeP2S12-frame#LGPS-type
_exptl_crystal_density_diffrn 1.98
_diffrn_ambient_temperature 300.
_citation_title

;
Conduction mechanism of Li$_{10}$GeP$_2$S$_{12}$-type lithium superionic
conductors in a Li–Sn–Si–P–S system
;
loop_
_citation_id
_citation_journal_full
_citation_year
_citation_journal_volume
_citation_page_first
_citation_page_last
_citation_journal_id_ASTM
primary 'Chemistry of Materials' 2019 31 3485 3490 CMATEX
loop_
_citation_author_citation_id
_citation_author_name
primary 'Inagaki, Makoto'
primary 'Suzuki, Kota'
primary 'Hori, Satoshi'
primary 'Yoshino, Kazuhiro'
primary 'Matsui, Naoki'
primary 'Yonemura, Masao'
primary 'Hirayama, Masaaki'
primary 'Kanno, Ryoji'
_cell_length_a 8.71073(2)
_cell_length_b 8.71073(2)
_cell_length_c 12.62060(6)
_cell_angle_alpha 90.
_cell_angle_beta 90.
_cell_angle_gamma 90.
_cell_volume 957.6
_cell_formula_units_Z 2
_space_group_name_H-M_alt 'P 42/n m c S'
_space_group_IT_number 137
loop_
_space_group_symop_id
_space_group_symop_operation_xyz
1 '-y+1/2, -x+1/2, z+1/2'
2 'y+1/2, x+1/2, z+1/2'
3 '-y, -x, -z'
4 'y, x, -z'
5 'y+1/2, -x+1/2, z+1/2'
6 '-y+1/2, x+1/2, z+1/2'
7 'y, -x, -z'
8 '-y, x, -z'
9 'x+1/2, -y+1/2, -z+1/2'
10 '-x+1/2, y+1/2, -z+1/2'
11 'x, -y, z'
12 '-x, y, z'
13 '-x+1/2, -y+1/2, -z+1/2'
14 'x+1/2, y+1/2, -z+1/2'
15 '-x, -y, z'
16 'x, y, z'
loop_
_atom_type_symbol
_atom_type_oxidation_number
Li1+ 1
Sn4+ 4
Si4+ 4
P5+ 5
S2- -2
loop_
_atom_site_label
_atom_site_type_symbol
_atom_site_symmetry_multiplicity
_atom_site_Wyckoff_symbol
_atom_site_fract_x
_atom_site_fract_y
_atom_site_fract_z
_atom_site_B_iso_or_equiv
_atom_site_occupancy
Li1 Li1+ 16 h 0.2495(3) 0.2642(3) 0.1918(2) . 0.501(2)
Li2 Li1+ 4 d 0 0.5 0.9449(2) . 1.
Li3 Li1+ 8 f 0.24715(18) 0.24715(18) 0 . 0.689(8)
Li4 Li1+ 4 c 0 0 0.2453(2) . 0.791(13)
Sn1 Sn4+ 4 d 0 0.5 0.68999(6) . 0.135
Si1 Si4+ 4 d 0 0.5 0.68999(6) . 0.54
P1 P5+ 4 d 0 0.5 0.68999(6) . 0.325
P2 P5+ 2 b 0 0 0.5 . 1.
S1 S2- 8 g 0 0.18834(10) 0.40969(8) . 1.
S2 S2- 8 g 0 0.29646(11) 0.10121(10) . 1.
S3 S2- 8 g 0 0.69147(13) 0.78485(8) . 1.
loop_
_atom_site_aniso_label
_atom_site_aniso_type_symbol
_atom_site_aniso_beta_11
_atom_site_aniso_beta_22
_atom_site_aniso_beta_33
_atom_site_aniso_beta_12
_atom_site_aniso_beta_13
_atom_site_aniso_beta_23
Li1 Li1+ 10.4(2) 8.9(2) 14.6(4) 3.42(16) -1.03(18) -10.3(2)
Li2 Li1+ 13.6(2) 7.78(14) 6.89(16) 0 0 0
Li3 Li1+ 8.1(3) 8.1(3) 37.8(7) -0.7(2) 1.75(16) 1.75(16)
Li4 Li1+ 9.4(4) 35.7(6) 7.35(4) 0 0 0
Sn1 Sn4+ 5.10(7) 4.51(6) 4.40(7) 0 0 0
Si1 Si4+ 5.10(7) 4.51(6) 4.40(7) 0 0 0
P1 P5+ 5.10(7) 4.51(6) 4.40(7) 0 0 0
P2 P5+ 3.81(5) 3.81(5) 8.20(10) 0 0 0
S1 S2- 5.54(6) 4.71(8) 3.10(7) 0 0 0.86(6)
S2 S2- 4.58(7) 6.15(7) 3.88(7) 0 0 -0.04(5)
S3 S2- 5.14(8) 5.14(8) 3.44(7) 0 00 1.26(6)
#End of TTdata_5669-ICSD
#
