(C) 2022 by FIZ Karlsruhe - Leibniz Institute for Information Infrastructure.  All rights reserved.
data_193755-ICSD
_database_code_ICSD 193755
_audit_creation_date 2015-08-01
_chemical_name_common 'Decalithium thiodiphosphostannate'
_chemical_formula_structural 'Li10 (Sn P2 S12)'
_chemical_formula_sum 'Li10 P2 S12 Sn1'
_chemical_name_structure_type Li10GeP2S12-frame#LGPS-type
_exptl_crystal_density_diffrn 2.18
_diffrn_ambient_temperature 100.
_citation_title 'Li10 Sn P2 S12: An affordable lithium superionic conductor'
loop_
_citation_id
_citation_journal_full
_citation_year
_citation_journal_volume
_citation_page_first
_citation_page_last
_citation_journal_id_ASTM
primary 'Journal of the American Chemical Society' 2013 135 15694 15697 JACSAT
loop_
_citation_author_citation_id
_citation_author_name
primary 'Bron, Philipp'
primary 'Johansson, Sebastian'
primary 'Zick, Klaus'
primary 'Schmedt auf der Guenne, Joern'
primary 'Dehnen, Stefanie'
primary 'Roling, Bernhard'
_cell_length_a 8.7057(4)
_cell_length_b 8.7057(4)
_cell_length_c 12.7389(9)
_cell_angle_alpha 90.
_cell_angle_beta 90.
_cell_angle_gamma 90.
_cell_volume 965.47
_cell_formula_units_Z 2
_space_group_name_H-M_alt 'P 42/n m c Z'
_space_group_IT_number 137
loop_
_space_group_symop_id
_space_group_symop_operation_xyz
1 'y+1/2, x+1/2, -z+1/2'
2 '-y, x+1/2, -z+1/2'
3 'y+1/2, -x, -z+1/2'
4 '-y, -x, -z+1/2'
5 'x+1/2, y+1/2, -z'
6 '-x, y+1/2, -z'
7 'x+1/2, -y, -z'
8 '-x, -y, -z'
9 '-y+1/2, -x+1/2, z+1/2'
10 'y, -x+1/2, z+1/2'
11 '-y+1/2, x, z+1/2'
12 'y, x, z+1/2'
13 '-x+1/2, -y+1/2, z'
14 'x, -y+1/2, z'
15 '-x+1/2, y, z'
16 'x, y, z'
loop_
_atom_type_symbol
_atom_type_oxidation_number
Li1+ 1
P5+ 5
Sn4+ 4
P5+ 5
S2- -2
loop_
_atom_site_label
_atom_site_type_symbol
_atom_site_symmetry_multiplicity
_atom_site_Wyckoff_symbol
_atom_site_fract_x
_atom_site_fract_y
_atom_site_fract_z
_atom_site_U_iso_or_equiv
_atom_site_occupancy
Li1 Li1+ 16 h 0.514(2) 0.490(2) 0.9280(19) 0.088(7) 0.5
Li2 Li1+ 16 h 0.473(5) 0.493(3) 0.785(3) 0.088(17) 0.3
Li3 Li1+ 4 d 0.25 0.25 0.8063(13) 0.077(5) 1
Li4 Li1+ 4 c 0.25 0.75 1.0042(17) 0.085(8) 0.8
P1 P5+ 2 a 0.75 0.25 0.75 0.0320(6) 1
Sn1 Sn4+ 4 d 0.25 0.25 1.06369(7) 0.0436(3) 0.5
P2 P5+ 4 d 0.25 0.25 1.06369(7) 0.0436(3) 0.5
S1 S2- 8 g 0.56023(17) 0.25 0.84246(11) 0.0445(4) 1
S2 S2- 8 g 0.25 0.4596(2) 0.65620(13) 0.0539(5) 1
S3 S2- 8 g 0.25 0.4534(2) 0.96044(13) 0.0462(4) 1
loop_
_atom_site_aniso_label
_atom_site_aniso_type_symbol
_atom_site_aniso_U_11
_atom_site_aniso_U_22
_atom_site_aniso_U_33
_atom_site_aniso_U_12
_atom_site_aniso_U_13
_atom_site_aniso_U_23
Li1 Li1+ 0.038(11) 0.061(15) 0.17(2) -0.024(8) -0.001(11) -0.016(13)
Li2 Li1+ 0.13(4) 0.016(12) 0.12(3) 0.017(16) -0.10(3) -0.021(18)
Li3 Li1+ 0.089(15) 0.098(16) 0.043(9) 0. 0. 0.
Li4 Li1+ 0.15(3) 0.059(15) 0.047(11) 0. 0. 0.
P1 P5+ 0.0315(8) 0.0315(8) 0.0332(13) 0. 0. 0.
Sn1 Sn4+ 0.0501(6) 0.0427(6) 0.0379(5) 0. 0. 0.
P2 P5+ 0.0501(6) 0.0427(6) 0.0379(5) 0. 0. 0.
S1 S2- 0.0329(7) 0.0533(9) 0.0471(7) 0. 0.0053(6) 0.
S2 S2- 0.0416(8) 0.0770(12) 0.0432(8) 0. 0. 0.0039(8)
S3 S2- 0.0377(8) 0.0517(9) 0.0491(8) 0. 0. -0.0119(7)
#End of TTdata_193755-ICSD
#
