(C) 2022 by FIZ Karlsruhe - Leibniz Institute for Information Infrastructure.  All rights reserved.
data_130167-ICSD
_database_code_ICSD 130167
_audit_creation_date 2020-08-01
_chemical_name_common 'Lithium germanium thiophosphate'
_chemical_formula_structural 'Li10.124 Ge1.11 P1.89 S12'
_chemical_formula_sum 'Ge1.11 Li10.124 P1.89 S12'
_chemical_name_structure_type Li10GeP2S12-frame#LGPS-type
_exptl_crystal_density_diffrn 2.09
_diffrn_ambient_temperature 300.
_citation_title

;
Weak anisotropic lithium-ion conductivity in single crystals of
Li$_{10}$GeP$_2$S$_{12}$
;
loop_
_citation_id
_citation_journal_full
_citation_year
_citation_journal_volume
_citation_page_first
_citation_page_last
_citation_journal_id_ASTM
primary 'Chemistry of Materials' 2019 31 3694 3699 CMATEX
loop_
_citation_author_citation_id
_citation_author_name
primary 'Iwasaki, Rui'
primary 'Hori, Satoshi'
primary 'Kanno, Ryoji'
primary 'Yajima, Takeshi'
primary 'Hirai, Daigorou'
primary 'Kato, Yuki'
primary 'Hiroi, Zenji'
_cell_length_a 8.6640(2)
_cell_length_b 8.6640(2)
_cell_length_c 12.5830(5)
_cell_angle_alpha 90.
_cell_angle_beta 90.
_cell_angle_gamma 90.
_cell_volume 944.54
_cell_formula_units_Z 2
_space_group_name_H-M_alt 'P 42/n m c S'
_space_group_IT_number 137
loop_
_space_group_symop_id
_space_group_symop_operation_xyz
1 '-y+1/2, -x+1/2, z+1/2'
2 'y+1/2, x+1/2, z+1/2'
3 '-y, -x, -z'
4 'y, x, -z'
5 'y+1/2, -x+1/2, z+1/2'
6 '-y+1/2, x+1/2, z+1/2'
7 'y, -x, -z'
8 '-y, x, -z'
9 'x+1/2, -y+1/2, -z+1/2'
10 '-x+1/2, y+1/2, -z+1/2'
11 'x, -y, z'
12 '-x, y, z'
13 '-x+1/2, -y+1/2, -z+1/2'
14 'x+1/2, y+1/2, -z+1/2'
15 '-x, -y, z'
16 'x, y, z'
loop_
_atom_type_symbol
_atom_type_oxidation_number
Ge4+ 4
P5+ 5
S2- -2
Li1+ 1
loop_
_atom_site_label
_atom_site_type_symbol
_atom_site_symmetry_multiplicity
_atom_site_Wyckoff_symbol
_atom_site_fract_x
_atom_site_fract_y
_atom_site_fract_z
_atom_site_U_iso_or_equiv
_atom_site_occupancy
Ge1 Ge4+ 4 d 0 0.5 0.69091(5) 0.0269(2) 0.555(4)
P1 P5+ 4 d 0 0.5 0.69091(5) 0.0269(2) 0.445(4)
P2 P5+ 2 b 0 0 0.5 0.0251(3) 1
S1 S2- 8 g 0 0.18810(10) 0.40780(7) 0.0462(3) 1
S2 S2- 8 g 0 0.29477(10) 0.09678(7) 0.0367(3) 1
S3 S2- 8 g 0 0.69978(9) 0.79128(6) 0.0352(3) 1
Li1 Li1+ 16 h 0.264(2) 0.2661(19) 0.1884(19) 0.135(12) 0.479(18)
Li2 Li1+ 4 d 0 0.5 0.9473(8) 0.058(5) 0.84(4)
Li3 Li1+ 16 h 0.227(4) 0.261(3) -0.0347(18) 0.115(15) 0.399(16)
Li4 Li1+ 4 c 0.5 0.5 0.2455(14) 0.104(10) 0.71(10)
loop_
_atom_site_aniso_label
_atom_site_aniso_type_symbol
_atom_site_aniso_U_11
_atom_site_aniso_U_22
_atom_site_aniso_U_33
_atom_site_aniso_U_12
_atom_site_aniso_U_13
_atom_site_aniso_U_23
Ge1 Ge4+ 0.0334(4) 0.0275(3) 0.0198(3) 0 0 0
P1 P5+ 0.0334(4) 0.0275(3) 0.0198(3) 0 0 0
P2 P5+ 0.0263(4) 0.0263(4) 0.0226(7) 0 0 0
S1 S2- 0.0644(6) 0.0314(4) 0.0427(5) 0 0 0.0057(4)
S2 S2- 0.0381(4) 0.0416(5) 0.0304(4) 0 0 -0.0021(3)
S3 S2- 0.0428(5) 0.0314(4) 0.0315(4) 0 0 -0.0002(3)
Li1 Li1+ 0.080(10) 0.056(9) 0.27(3) 0.017(8) 0.001(16) 0.018(14)
Li2 Li1+ 0.070(8) 0.078(9) 0.026(6) 0 0 0
Li3 Li1+ 0.14(2) 0.060(11) 0.15(4) -0.036(14) 0.09(2) -0.040(16)
Li4 Li1+ 0.061(11) 0.20(3) 0.056(12) 0 0 0
#End of TTdata_130167-ICSD
#
