(C) 2022 by FIZ Karlsruhe - Leibniz Institute for Information Infrastructure.  All rights reserved.
data_18842-ICSD
_database_code_ICSD 18842
_audit_creation_date 2021-02-01
_chemical_name_common 'Decalithium germanium dodecathiodi(phosphate-antimonate)'
_chemical_formula_structural 'Li10 Ge (P0.925 Sb0.075)2 S12'
_chemical_formula_sum 'Ge1 Li10 P1.85 S12 Sb0.15'
_chemical_name_structure_type Li10GeP2S12-frame#LGPS-type
_exptl_crystal_density_diffrn 2.09
_citation_title

;
Li$_{10}$Ge(P$_{1-x}$Sb$_x$)$_2$S$_{12}$ lithium-ion conductors with enhanced
atmospheric stability
;
loop_
_citation_id
_citation_journal_full
_citation_year
_citation_journal_volume
_citation_page_first
_citation_page_last
_citation_journal_id_ASTM
primary 'Chemistry of Materials' 2020 32 2664 2672 CMATEX
loop_
_citation_author_citation_id
_citation_author_name
primary 'Liang, Jianwen'
primary 'Chen, Ning'
primary 'Li, Xiaona'
primary 'Li, Xia'
primary 'Adair, Keegan R.'
primary 'Li, Junjie'
primary 'Wang, Changhong'
primary 'Yu, Chuang'
primary 'Banis, Mohammad Norouzi'
primary 'Zhang, Li'
primary 'Zhao, Shangqian'
primary 'Lu, Shigang'
primary 'Huang, Huan'
primary 'Li, Ruying'
primary 'Huang, Yining'
primary 'Sun, Xueliang'
_cell_length_a 8.7105
_cell_length_b 8.7105
_cell_length_c 12.6334
_cell_angle_alpha 90.
_cell_angle_beta 90.
_cell_angle_gamma 90.
_cell_volume 958.53
_cell_formula_units_Z 2
_space_group_name_H-M_alt 'P 42/n m c S'
_space_group_IT_number 137
loop_
_space_group_symop_id
_space_group_symop_operation_xyz
1 '-y+1/2, -x+1/2, z+1/2'
2 'y+1/2, x+1/2, z+1/2'
3 '-y, -x, -z'
4 'y, x, -z'
5 'y+1/2, -x+1/2, z+1/2'
6 '-y+1/2, x+1/2, z+1/2'
7 'y, -x, -z'
8 '-y, x, -z'
9 'x+1/2, -y+1/2, -z+1/2'
10 '-x+1/2, y+1/2, -z+1/2'
11 'x, -y, z'
12 '-x, y, z'
13 '-x+1/2, -y+1/2, -z+1/2'
14 'x+1/2, y+1/2, -z+1/2'
15 '-x, -y, z'
16 'x, y, z'
loop_
_atom_type_symbol
_atom_type_oxidation_number
Li1+ 1
Ge4+ 4
P5+ 5
Sb5+ 5
Li1+ 1
P5+ 5
S2- -2
loop_
_atom_site_label
_atom_site_type_symbol
_atom_site_symmetry_multiplicity
_atom_site_Wyckoff_symbol
_atom_site_fract_x
_atom_site_fract_y
_atom_site_fract_z
_atom_site_U_iso_or_equiv
_atom_site_occupancy
Li1 Li1+ 16 h 0.267 0.273 0.194 0.192 0.48
Li2 Li1+ 4 d 0 0.5 0.9454 0.127 1
Ge1 Ge4+ 4 d 0 0.5 0.6915 0.03 0.5
P1 P5+ 4 d 0 0.5 0.6915 0.03 0.425
Sb1 Sb5+ 4 d 0 0.5 0.6915 0.03 0.075
Li3 Li1+ 8 f 0.248 0.248 0 0.023 0.46
Li4 Li1+ 4 c 0 0 0.251 13.053 0.98
P2 P5+ 2 b 0 0 0.5 0.022 1
S1 S2- 8 g 0 0.1885 0.407 0.033 1
S2 S2- 8 g 0 0.2955 0.0972 0.024 1
S3 S2- 8 g 0 0.699 0.7916 0.02 1
#End of TTdata_18842-ICSD
#
