(C) 2022 by FIZ Karlsruhe - Leibniz Institute for Information Infrastructure.  All rights reserved.
data_54663-ICSD
_database_code_ICSD 54663
_audit_creation_date 2023-02-01
_chemical_name_common 'Decalithium triphosphorus dodecasulfide iodide'
_chemical_formula_structural 'Li10 P3 S12 I'
_chemical_formula_sum 'I1 Li10 P3 S12'
_exptl_crystal_density_diffrn 2.28
_citation_title

;
Material search for a Li$_{10}$GeP$_2$S$_{12}$-type solid electrolyte in the
Li-P-S-X (X = Br, I) system via clarification of the
composition-structure-property relationships
;
loop_
_citation_id
_citation_journal_full
_citation_year
_citation_journal_volume
_citation_page_first
_citation_page_last
_citation_journal_id_ASTM
primary 'Chemistry of Materials' 2022 34 8237 8247 CMATEX
loop_
_citation_author_citation_id
_citation_author_name
primary 'Song, Subin'
primary 'Hori, Satoshi'
primary 'Li, Yuxiang'
primary 'Suzuki, Kota'
primary 'Matsui, Naoki'
primary 'Hirayama, Masaaki'
primary 'Saito, Takashi'
primary 'Kamiyama, Takashi'
primary 'Kanno, Ryoji'
_cell_length_a 8.8446(2)
_cell_length_b 8.8446(2)
_cell_length_c 12.5229(7)
_cell_angle_alpha 90.
_cell_angle_beta 90.
_cell_angle_gamma 90.
_cell_volume 979.63
_cell_formula_units_Z 2
_space_group_name_H-M_alt 'P 42/n m c S'
_space_group_IT_number 137
loop_
_space_group_symop_id
_space_group_symop_operation_xyz
1 '-y+1/2, -x+1/2, z+1/2'
2 'y+1/2, x+1/2, z+1/2'
3 '-y, -x, -z'
4 'y, x, -z'
5 'y+1/2, -x+1/2, z+1/2'
6 '-y+1/2, x+1/2, z+1/2'
7 'y, -x, -z'
8 '-y, x, -z'
9 'x+1/2, -y+1/2, -z+1/2'
10 '-x+1/2, y+1/2, -z+1/2'
11 'x, -y, z'
12 '-x, y, z'
13 '-x+1/2, -y+1/2, -z+1/2'
14 'x+1/2, y+1/2, -z+1/2'
15 '-x, -y, z'
16 'x, y, z'
loop_
_atom_type_symbol
_atom_type_oxidation_number
Li1+ 1
P5+ 5
S2- -2
I1- -1
loop_
_atom_site_label
_atom_site_type_symbol
_atom_site_symmetry_multiplicity
_atom_site_Wyckoff_symbol
_atom_site_fract_x
_atom_site_fract_y
_atom_site_fract_z
_atom_site_B_iso_or_equiv
_atom_site_occupancy
Li1 Li1+ 8 e 0.25 0.25 0.25 5.76 0.740(16)
Li2 Li1+ 4 d 0 0.5 0.9889(18) 10.26 1
Li3 Li1+ 8 f 0.2135(12) 0.2135(12) 0 11.05 0.760(16)
Li4 Li1+ 4 c 0 0 0.2909(19) 11.84 1
P1 P5+ 4 d 0 0.5 0.7281(3) 3 1
P2 P5+ 2 b 0 0 0.5 3 1
S1 S2- 8 g 0 0.2166(7) 0.4202(5) 4 1
S2 S2- 8 g 0 0.2964(9) 0.1643(6) 4 1
S3 S2- 8 g 0 0.6989(9) 0.8192(6) 4 1
I1 I1- 4 c 0 0 0.0801(5) 2 0.505(8)
#End of TTdata_54663-ICSD
#
