(C) 2022 by FIZ Karlsruhe - Leibniz Institute for Information Infrastructure.  All rights reserved.
data_403573-ICSD
_database_code_ICSD 403573
_audit_creation_date 2020-08-01
_chemical_name_common 'Lithium silicon thiophosphate oxysulfide'
_chemical_formula_structural 'Li10.34 Si1.35 P1.65 S9.68 O2.3'
_chemical_formula_sum 'Li10.34 O2.3 P1.65 S9.68 Si1.35'
_chemical_name_structure_type Li10GeP2S12-frame#LGPS-type
_exptl_crystal_density_diffrn 1.8
_citation_title

;
Structures and properties of oxygen-substituted \(Li_{10}SiP_2 S_{12-x}O_x\)
solid-state electrolytes
;
loop_
_citation_id
_citation_journal_full
_citation_year
_citation_journal_volume
_citation_page_first
_citation_page_last
_citation_journal_id_ASTM
primary 'Chemistry of Materials' 2019 31 3984 3991 CMATEX
loop_
_citation_author_citation_id
_citation_author_name
primary 'Kim, Kwang-Hyun'
primary 'Martin, Steve W.'
_cell_length_a 8.6606(3)
_cell_length_b 8.6606(3)
_cell_length_c 12.5213(4)
_cell_angle_alpha 90.
_cell_angle_beta 90.
_cell_angle_gamma 90.
_cell_volume 939.17
_cell_formula_units_Z 2
_space_group_name_H-M_alt 'P 42/n m c S'
_space_group_IT_number 137
loop_
_space_group_symop_id
_space_group_symop_operation_xyz
1 '-y+1/2, -x+1/2, z+1/2'
2 'y+1/2, x+1/2, z+1/2'
3 '-y, -x, -z'
4 'y, x, -z'
5 'y+1/2, -x+1/2, z+1/2'
6 '-y+1/2, x+1/2, z+1/2'
7 'y, -x, -z'
8 '-y, x, -z'
9 'x+1/2, -y+1/2, -z+1/2'
10 '-x+1/2, y+1/2, -z+1/2'
11 'x, -y, z'
12 '-x, y, z'
13 '-x+1/2, -y+1/2, -z+1/2'
14 'x+1/2, y+1/2, -z+1/2'
15 '-x, -y, z'
16 'x, y, z'
loop_
_atom_type_symbol
_atom_type_oxidation_number
Li1+ 1
Si4+ 4
P5+ 5
S2- -2
O2- -2
loop_
_atom_site_label
_atom_site_type_symbol
_atom_site_symmetry_multiplicity
_atom_site_Wyckoff_symbol
_atom_site_fract_x
_atom_site_fract_y
_atom_site_fract_z
_atom_site_B_iso_or_equiv
_atom_site_occupancy
Li1 Li1+ 16 h 0.255 0.2692 0.1944 9.052 0.458
Li2 Li1+ 4 d 0 0.5 0.9463 3.737 0.916
Li3 Li1+ 8 f 0.744 0.244 0 14.683 0.8
Li4 Li1+ 4 c 0 0 0.2476 8.677 0.829
Si1 Si4+ 4 d 0 0.5 0.69004 2.068 0.675
P1 P5+ 4 d 0 0.5 0.69004 2.068 0.325
P2 P5+ 2 b 0 0 0.5 2.97 1
S1 S2- 8 g 0 0.1908(5) 0.4091(5) 2.801 0.735(15)
S2 S2- 8 g 0 0.2900(5) 0.0964(4) 2.681 0.858(14)
S3 S2- 8 g 0 0.6853(5) 0.7935(4) 1.729 0.827(17)
O1 O2- 8 g 0 0.1908(5) 0.4091(5) 2.801 0.265(15)
O2 O2- 8 g 0 0.2900(5) 0.0964(4) 2.681 0.142(14)
O3 O2- 8 g 0 0.6853(5) 0.7935(4) 1.729 0.173(17)
#End of TTdata_403573-ICSD
#
