(C) 2022 by FIZ Karlsruhe - Leibniz Institute for Information Infrastructure.  All rights reserved.
data_5667-ICSD
_database_code_ICSD 5667
_audit_creation_date 2020-02-01
_chemical_name_common
'Lithium tin silicon phosphorus sulfide (10.2/0.96/0.24/1.8/12)'
_chemical_formula_structural 'Li10.2 (Sn0.8 Si0.2)1.2 P1.8 S12'
_chemical_formula_sum 'Li10.2 P1.8 S12 Si0.24 Sn0.96'
_chemical_name_structure_type Li10GeP2S12-frame#LGPS-type
_exptl_crystal_density_diffrn 2.15
_diffrn_ambient_temperature 300.
_citation_title

;
Conduction mechanism of Li$_{10}$GeP$_2$S$_{12}$-type lithium superionic
conductors in a Li–Sn–Si–P–S system
;
loop_
_citation_id
_citation_journal_full
_citation_year
_citation_journal_volume
_citation_page_first
_citation_page_last
_citation_journal_id_ASTM
primary 'Chemistry of Materials' 2019 31 3485 3490 CMATEX
loop_
_citation_author_citation_id
_citation_author_name
primary 'Inagaki, Makoto'
primary 'Suzuki, Kota'
primary 'Hori, Satoshi'
primary 'Yoshino, Kazuhiro'
primary 'Matsui, Naoki'
primary 'Yonemura, Masao'
primary 'Hirayama, Masaaki'
primary 'Kanno, Ryoji'
_cell_length_a 8.74128(3)
_cell_length_b 8.74128(3)
_cell_length_c 12.75215(7)
_cell_angle_alpha 90.
_cell_angle_beta 90.
_cell_angle_gamma 90.
_cell_volume 974.39
_cell_formula_units_Z 2
_space_group_name_H-M_alt 'P 42/n m c S'
_space_group_IT_number 137
loop_
_space_group_symop_id
_space_group_symop_operation_xyz
1 '-y+1/2, -x+1/2, z+1/2'
2 'y+1/2, x+1/2, z+1/2'
3 '-y, -x, -z'
4 'y, x, -z'
5 'y+1/2, -x+1/2, z+1/2'
6 '-y+1/2, x+1/2, z+1/2'
7 'y, -x, -z'
8 '-y, x, -z'
9 'x+1/2, -y+1/2, -z+1/2'
10 '-x+1/2, y+1/2, -z+1/2'
11 'x, -y, z'
12 '-x, y, z'
13 '-x+1/2, -y+1/2, -z+1/2'
14 'x+1/2, y+1/2, -z+1/2'
15 '-x, -y, z'
16 'x, y, z'
loop_
_atom_type_symbol
_atom_type_oxidation_number
Li1+ 1
Sn4+ 4
Si4+ 4
P5+ 5
S2- -2
loop_
_atom_site_label
_atom_site_type_symbol
_atom_site_symmetry_multiplicity
_atom_site_Wyckoff_symbol
_atom_site_fract_x
_atom_site_fract_y
_atom_site_fract_z
_atom_site_B_iso_or_equiv
_atom_site_occupancy
Li1 Li1+ 16 h 0.2533(3) 0.2705(4) 0.1826(3) . 0.425(4)
Li2 Li1+ 4 d 0 0.5 0.9491(3) . 1.
Li3 Li1+ 8 f 0.2411(2) 0.2411(2) 0 . 0.877(8)
Li4 Li1+ 4 c 0 0 0.2466(3) . 0.645(3)
Sn1 Sn4+ 4 d 0 0.5 0.68753(6) . 0.48
Si1 Si4+ 4 d 0 0.5 0.68753(6) . 0.12
P1 P5+ 4 d 0 0.5 0.68753(6) . 0.4
P2 P5+ 2 b 0 0 0.5 . 1.
S1 S2- 8 g 0 0.18798(10) 0.40900(9) . 1.
S2 S2- 8 g 0 0.28667(14) 0.09885(13) . 1.
S3 S2- 8 g 0 0.69897(14) 0.78740(11) . 1.
loop_
_atom_site_aniso_label
_atom_site_aniso_type_symbol
_atom_site_aniso_beta_11
_atom_site_aniso_beta_22
_atom_site_aniso_beta_33
_atom_site_aniso_beta_12
_atom_site_aniso_beta_13
_atom_site_aniso_beta_23
Li1 Li1+ 4.1(3) 4.7(2) 16.3(4) 1.46(16) -1.5(3) -5.6(3)
Li2 Li1+ 8.9(2) 9.0(2) 15.6(3) 0 0. 0.
Li3 Li1+ 10.5(2) 10.5(2) 31.2(6) -4.9(2) 9.01(18) 9.01(18)
Li4 Li1+ 3.4(3) 12.3(4) 6.7(3) 0 0 0
Sn1 Sn4+ 4.81(6) 3.13(5) 3.94(6) 0 0 0
Si1 Si4+ 4.81(6) 3.13(5) 3.94(6) 0 0 0
P1 P5+ 4.81(6) 3.13(5) 3.94(6) 0 0 0
P2 P5+ 3.29(4) 3.29(2) 5.43(10) 0 0 0
S1 S2- 4.93(7) 3.29(7) 4.48(8) 0 0 -0.07(6)
S2 S2- 2.26(6) 6.73(8) 4.92(8) 0 0 -0.80(6)
S3 S2- 5.16(8) 5.90(7) 3.71(8) 0 00 1.90(7)
#End of TTdata_5667-ICSD
#
