(C) 2022 by FIZ Karlsruhe - Leibniz Institute for Information Infrastructure.  All rights reserved.
data_188887-ICSD
_database_code_ICSD 188887
_audit_creation_date 2014-02-01
_chemical_name_common 'Decalithium dodecathiogermanodiphosphate'
_chemical_formula_structural 'Li10 Ge P2 S12'
_chemical_formula_sum 'Ge1 Li10 P2 S12'
_chemical_name_structure_type Li10GeP2S12-frame#LGPS-type
_exptl_crystal_density_diffrn 2.03
_diffrn_ambient_temperature 298.
_citation_title

;
Single-crystal X - ray structure analysis of the superionic conductor Li10 Ge
P2 S12
;
loop_
_citation_id
_citation_journal_full
_citation_year
_citation_journal_volume
_citation_page_first
_citation_page_last
_citation_journal_id_ASTM
primary 'Physical Chemistry Chemical Physics' 2013 15 11620 11622 PPCPFQ
loop_
_citation_author_citation_id
_citation_author_name
primary 'Kuhn, Alexander'
primary 'Koehler, Juergen'
primary 'Lotsch, Bettina V.'
_cell_length_a 8.719(3)
_cell_length_b 8.719(3)
_cell_length_c 12.639(4)
_cell_angle_alpha 90.
_cell_angle_beta 90.
_cell_angle_gamma 90.
_cell_volume 960.83
_cell_formula_units_Z 2
_space_group_name_H-M_alt 'P 42/n m c S'
_space_group_IT_number 137
loop_
_space_group_symop_id
_space_group_symop_operation_xyz
1 '-y+1/2, -x+1/2, z+1/2'
2 'y+1/2, x+1/2, z+1/2'
3 '-y, -x, -z'
4 'y, x, -z'
5 'y+1/2, -x+1/2, z+1/2'
6 '-y+1/2, x+1/2, z+1/2'
7 'y, -x, -z'
8 '-y, x, -z'
9 'x+1/2, -y+1/2, -z+1/2'
10 '-x+1/2, y+1/2, -z+1/2'
11 'x, -y, z'
12 '-x, y, z'
13 '-x+1/2, -y+1/2, -z+1/2'
14 'x+1/2, y+1/2, -z+1/2'
15 '-x, -y, z'
16 'x, y, z'
loop_
_atom_type_symbol
_atom_type_oxidation_number
Li1+ 1
Ge4+ 4
P5+ 5
S2- -2
loop_
_atom_site_label
_atom_site_type_symbol
_atom_site_symmetry_multiplicity
_atom_site_Wyckoff_symbol
_atom_site_fract_x
_atom_site_fract_y
_atom_site_fract_z
_atom_site_U_iso_or_equiv
_atom_site_occupancy
Li1 Li1+ 16 h 0.267(3) 0.273(3) 0.194(2) 0.114(11) 0.466(18)
Li2 Li1+ 4 d 0. 0.5 0.9454(12) 0.056(6) 0.86(6)
Li3 Li1+ 8 f 0.248(2) 0.248(2) 0. 0.18(2) 0.74(5)
Li4 Li1+ 4 c 0. 0. 0.251(2) 0.108(14) 0.81(7)
Ge1 Ge4+ 4 d 0. 0.5 0.69154(7) 0.0286(3) 0.5
P1 P5+ 4 d 0. 0.5 0.69154(7) 0.0286(3) 0.5
P2 P5+ 2 b 0. 0. 0.5 0.0272(4) 1
S1 S2- 8 g 0. 0.18857(13) 0.40707(10) 0.0466(4) 1
S2 S2- 8 g 0. 0.29557(14) 0.09727(9) 0.0399(3) 1
S3 S2- 8 g 0. 0.69901(13) 0.79168(9) 0.0373(3) 1
loop_
_atom_site_aniso_label
_atom_site_aniso_type_symbol
_atom_site_aniso_U_11
_atom_site_aniso_U_22
_atom_site_aniso_U_33
_atom_site_aniso_U_12
_atom_site_aniso_U_13
_atom_site_aniso_U_23
Li1 Li1+ 0.092(16) 0.054(11) 0.20(3) 0.028(10) 0.048(18) -0.013(15)
Li2 Li1+ 0.058(11) 0.070(12) 0.041(9) 0. 0. 0.
Li3 Li1+ 0.104(14) 0.104(14) 0.33(5) -0.050(15) 0.11(2) -0.11(2)
Li4 Li1+ 0.064(16) 0.18(3) 0.079(19) 0. 0. 0.
Ge1 Ge4+ 0.0318(4) 0.0272(4) 0.0267(4) 0. 0. 0.
P1 P5+ 0.0318(4) 0.0272(4) 0.0267(4) 0. 0. 0.
P2 P5+ 0.0261(5) 0.0261(5) 0.0295(9) 0. 0. 0.
S1 S2- 0.0634(8) 0.0294(5) 0.0471(7) 0. 0. 0.0055(5)
S2 S2- 0.0377(6) 0.0437(6) 0.0384(6) 0. 0. -0.0029(5)
S3 S2- 0.0388(6) 0.0329(5) 0.0403(6) 0. 0. 0.0002(4)
#End of TTdata_188887-ICSD
#
