(C) 2022 by FIZ Karlsruhe - Leibniz Institute for Information Infrastructure.  All rights reserved.
data_144392-ICSD
_database_code_ICSD 144392
_audit_creation_date 2022-08-01
_chemical_name_common 'Nonalithium nonathio-trioxo-triphosphate'
_chemical_formula_structural 'Li9 P3 S9 O3'
_chemical_formula_sum 'Li9 O3 P3 S9'
_chemical_name_structure_type Li10GeP2S12-frame#LGPS-type
_exptl_crystal_density_diffrn 2.01
_diffrn_ambient_temperature 298.
_citation_title

;
Li$_{10}$GeP$_2$S$_{12}$-type structured solid solution phases in the
Li$_{9+\delta}$P$_{3+\delta^\prime}$S$_{12-k}$O$_k$ system. Controlling
crystallinity by synthesis to improve the air stability
;
loop_
_citation_id
_citation_journal_full
_citation_year
_citation_journal_volume
_citation_page_first
_citation_page_last
_citation_journal_id_ASTM
primary 'Inorganic Chemistry' 2022 61 52 61 INOCAJ
loop_
_citation_author_citation_id
_citation_author_name
primary 'Xu, Miao'
primary 'Song, Subin'
primary 'Daikuhara, Shugo'
primary 'Matsui, Naoki'
primary 'Hori, Satoshi'
primary 'Suzuki, Kota'
primary 'Hirayama, Masaaki'
primary 'Shiotani, Shinya'
primary 'Nakanishi, Shinji'
primary 'Yonemura, Masao'
primary 'Saito, Takashi'
primary 'Kamiyama, Takashi'
primary 'Kanno, Ryoji'
_cell_length_a 8.13995(6)
_cell_length_b 8.13995(6)
_cell_length_c 12.27994(18)
_cell_angle_alpha 90.
_cell_angle_beta 90.
_cell_angle_gamma 90.
_cell_volume 813.66
_cell_formula_units_Z 2
_space_group_name_H-M_alt 'P 42/n m c S'
_space_group_IT_number 137
loop_
_space_group_symop_id
_space_group_symop_operation_xyz
1 '-y+1/2, -x+1/2, z+1/2'
2 'y+1/2, x+1/2, z+1/2'
3 '-y, -x, -z'
4 'y, x, -z'
5 'y+1/2, -x+1/2, z+1/2'
6 '-y+1/2, x+1/2, z+1/2'
7 'y, -x, -z'
8 '-y, x, -z'
9 'x+1/2, -y+1/2, -z+1/2'
10 '-x+1/2, y+1/2, -z+1/2'
11 'x, -y, z'
12 '-x, y, z'
13 '-x+1/2, -y+1/2, -z+1/2'
14 'x+1/2, y+1/2, -z+1/2'
15 '-x, -y, z'
16 'x, y, z'
loop_
_atom_type_symbol
_atom_type_oxidation_number
Li1+ 1
P5+ 5
S2- -2
O2- -2
S2- -2
loop_
_atom_site_label
_atom_site_type_symbol
_atom_site_symmetry_multiplicity
_atom_site_Wyckoff_symbol
_atom_site_fract_x
_atom_site_fract_y
_atom_site_fract_z
_atom_site_B_iso_or_equiv
_atom_site_occupancy
Li1 Li1+ 16 h 0.3088(17) 0.2615(13) 0.1637(12) 9.29(16) 0.336(9)
Li2 Li1+ 8 g 0.1020(13) 0.5 0.9321(14) 9.29(16) 0.387(10)
Li3 Li1+ 16 h 0.2269(6) 0.3091(10) -0.0678(7) 9.29(16) 0.595(6)
P1 P5+ 4 d 0 0.5 0.68038(17) 2.70(8) 1.
P2 P5+ 2 b 0 0 0.5 2.57(10) 1.
S1 S2- 8 g 0 0.16312(16) 0.42527(15) 4.06(8) 0.25
O1 O2- 8 g 0 0.16312(16) 0.42527(15) 4.06(8) 0.75
S2 S2- 8 g 0 0.2910(3) 0.0874(2) 3.36(10) 1.
S3 S2- 8 g 0 0.7031(3) 0.77654(19) 3.13(10) 1.
#End of TTdata_144392-ICSD
#
