(C) 2022 by FIZ Karlsruhe - Leibniz Institute for Information Infrastructure.  All rights reserved.
data_188886-ICSD
_database_code_ICSD 188886
_audit_creation_date 2014-02-01
_chemical_name_common 'Decalithium dodecathiogermanodiphosphate'
_chemical_formula_structural 'Li10 (Ge P2 S12)'
_chemical_formula_sum 'Ge1 Li10 P2 S12'
_chemical_name_structure_type Li10GeP2S12-frame#LGPS-type
_exptl_crystal_density_diffrn 2.08
_diffrn_ambient_temperature 100.
_citation_title

;
Single-crystal X - ray structure analysis of the superionic conductor Li10 Ge
P2 S12
;
loop_
_citation_id
_citation_journal_full
_citation_year
_citation_journal_volume
_citation_page_first
_citation_page_last
_citation_journal_id_ASTM
primary 'Physical Chemistry Chemical Physics' 2013 15 11620 11622 PPCPFQ
loop_
_citation_author_citation_id
_citation_author_name
primary 'Kuhn, Alexander'
primary 'Koehler, Juergen'
primary 'Lotsch, Bettina V.'
_cell_length_a 8.652(3)
_cell_length_b 8.652(3)
_cell_length_c 12.582(4)
_cell_angle_alpha 90.
_cell_angle_beta 90.
_cell_angle_gamma 90.
_cell_volume 941.85
_cell_formula_units_Z 2
_space_group_name_H-M_alt 'P 42/n m c S'
_space_group_IT_number 137
loop_
_space_group_symop_id
_space_group_symop_operation_xyz
1 '-y+1/2, -x+1/2, z+1/2'
2 'y+1/2, x+1/2, z+1/2'
3 '-y, -x, -z'
4 'y, x, -z'
5 'y+1/2, -x+1/2, z+1/2'
6 '-y+1/2, x+1/2, z+1/2'
7 'y, -x, -z'
8 '-y, x, -z'
9 'x+1/2, -y+1/2, -z+1/2'
10 '-x+1/2, y+1/2, -z+1/2'
11 'x, -y, z'
12 '-x, y, z'
13 '-x+1/2, -y+1/2, -z+1/2'
14 'x+1/2, y+1/2, -z+1/2'
15 '-x, -y, z'
16 'x, y, z'
loop_
_atom_type_symbol
_atom_type_oxidation_number
Li1+ 1
Ge4+ 4
P5+ 5
S2- -2
loop_
_atom_site_label
_atom_site_type_symbol
_atom_site_symmetry_multiplicity
_atom_site_Wyckoff_symbol
_atom_site_fract_x
_atom_site_fract_y
_atom_site_fract_z
_atom_site_U_iso_or_equiv
_atom_site_occupancy
Li1 Li1+ 16 h 0.257(2) 0.2699(19) 0.1869(16) 0.077(6) 0.474(16)
Li2 Li1+ 4 d 0. 0.5 0.9469(9) 0.039(4) 0.89(5)
Li3 Li1+ 8 f 0.2471(15) 0.2471(15) 0. 0.149(16) 0.72(4)
Li4 Li1+ 4 c 0. 0. 0.2510(16) 0.076(9) 0.77(6)
Ge1 Ge4+ 4 d 0. 0.5 0.69003(5) 0.0203(2) 0.5
P1 P5+ 4 d 0. 0.5 0.69003(5) 0.0203(2) 0.5
P2 P5+ 2 b 0. 0. 0.5 0.0188(3) 1
S1 S2- 8 g 0. 0.18954(11) 0.40664(8) 0.0335(3) 1
S2 S2- 8 g 0. 0.29440(12) 0.09561(7) 0.0283(2) 1
S3 S2- 8 g 0. 0.69990(11) 0.79051(7) 0.0266(2) 1
loop_
_atom_site_aniso_label
_atom_site_aniso_type_symbol
_atom_site_aniso_U_11
_atom_site_aniso_U_22
_atom_site_aniso_U_33
_atom_site_aniso_U_12
_atom_site_aniso_U_13
_atom_site_aniso_U_23
Li1 Li1+ 0.060(11) 0.035(8) 0.137(17) 0.011(7) 0.015(11) -0.008(10)
Li2 Li1+ 0.036(7) 0.051(8) 0.030(7) 0. 0. 0.
Li3 Li1+ 0.084(11) 0.084(11) 0.28(4) -0.050(12) 0.106(17) -0.106(17)
Li4 Li1+ 0.032(10) 0.14(2) 0.052(12) 0. 0. 0.
Ge1 Ge4+ 0.0251(4) 0.0206(4) 0.0151(3) 0. 0. 0.
P1 P5+ 0.0251(4) 0.0206(4) 0.0151(3) 0. 0. 0.
P2 P5+ 0.0187(5) 0.0187(5) 0.0190(7) 0. 0. 0.
S1 S2- 0.0483(6) 0.0208(4) 0.0314(5) 0. 0. 0.0038(4)
S2 S2- 0.0262(4) 0.0353(5) 0.0232(4) 0. 0. -0.0009(4)
S3 S2- 0.0295(5) 0.0251(5) 0.0253(4) 0. 0. 0.0013(3)
#End of TTdata_188886-ICSD
#
