(C) 2022 by FIZ Karlsruhe - Leibniz Institute for Information Infrastructure.  All rights reserved.
data_252036-ICSD
_database_code_ICSD 252036
_audit_creation_date 2016-02-01
_chemical_name_common 'Decalithium dodecathiogermanodiphosphate'
_chemical_formula_structural 'Li10.35 Si1.35 P1.65 S12'
_chemical_formula_sum 'Li10.35 P1.65 S12 Si1.35'
_chemical_name_structure_type Li10GeP2S12-frame#LGPS-type
_exptl_crystal_density_diffrn 1.94
_diffrn_ambient_temperature 17.
_citation_title

;
Structure-property relationships in lithium superionic conductors having a
Li10GeP2S12-type structure
;
loop_
_citation_id
_citation_journal_full
_citation_year
_citation_journal_volume
_citation_page_first
_citation_page_last
_citation_journal_id_ASTM
primary

;
Acta Crystallographica, Section B: Structural Science, Crystal Engineering and
Materials
; 2015 71 727 736 ACSBDA
loop_
_citation_author_citation_id
_citation_author_name
primary 'Hori, Satoshi'
primary 'Taminato, Sou'
primary 'Suzuki, Kota'
primary 'Hirayama, Masaaki'
primary 'Kato, Yuki'
primary 'Kanno, Ryoji'
_cell_length_a 8.64390(3)
_cell_length_b 8.64390(3)
_cell_length_c 12.50773(8)
_cell_angle_alpha 90.
_cell_angle_beta 90.
_cell_angle_gamma 90.
_cell_volume 934.54
_cell_formula_units_Z 2
_space_group_name_H-M_alt 'P 42/n m c S'
_space_group_IT_number 137
loop_
_space_group_symop_id
_space_group_symop_operation_xyz
1 '-y+1/2, -x+1/2, z+1/2'
2 'y+1/2, x+1/2, z+1/2'
3 '-y, -x, -z'
4 'y, x, -z'
5 'y+1/2, -x+1/2, z+1/2'
6 '-y+1/2, x+1/2, z+1/2'
7 'y, -x, -z'
8 '-y, x, -z'
9 'x+1/2, -y+1/2, -z+1/2'
10 '-x+1/2, y+1/2, -z+1/2'
11 'x, -y, z'
12 '-x, y, z'
13 '-x+1/2, -y+1/2, -z+1/2'
14 'x+1/2, y+1/2, -z+1/2'
15 '-x, -y, z'
16 'x, y, z'
loop_
_atom_type_symbol
_atom_type_oxidation_number
Li1+ 1
Si4+ 4
P5+ 5
S2- -2
loop_
_atom_site_label
_atom_site_type_symbol
_atom_site_symmetry_multiplicity
_atom_site_Wyckoff_symbol
_atom_site_fract_x
_atom_site_fract_y
_atom_site_fract_z
_atom_site_B_iso_or_equiv
_atom_site_occupancy
Li1 Li1+ 16 h 0.2574(3) 0.2666(3) 0.1929(2) 5.14639 0.437(4)
Li2 Li1+ 4 d 0 0.5 0.9456(2) 2.300442(18) 0.931(4)
Li3 Li1+ 8 f 0.24753(17) 0.24753(17) 0 13.41118 0.845(8)
Li4 Li1+ 4 c 0 0 0.2510(3) 7.77867 0.808(4)
Si1 Si4+ 4 d 0 0.5 0.68952(8) 1.624267 0.675
P1 P5+ 4 d 0 0.5 0.68952(8) 1.624267 0.325
P2 P5+ 2 b 0 0 0.5 2.070252 1
S1 S2- 8 g 0 0.18931(11) 0.40750(8) 1.565613 1
S2 S2- 8 g 0 0.29798(11) 0.09791(8) 1.746229 1
S3 S2- 8 g 0 0.69485(13) 0.78945(8) 1.471874 1
loop_
_atom_site_aniso_label
_atom_site_aniso_type_symbol
_atom_site_aniso_U_11
_atom_site_aniso_U_22
_atom_site_aniso_U_33
_atom_site_aniso_U_12
_atom_site_aniso_U_13
_atom_site_aniso_U_23
Li1 Li1+ 0.078175 0.0318131 0.0855577 0.00486698 -0.0094446 -0.029992
Li2 Li1+ 0.0472953 0.0369658 0.00314549 0 0 0
Li3 Li1+ 0.071518 0.071518 0.366528 -0.052218 0.088371 -0.088371
Li4 Li1+ 0.0717586 0.1683037 0.0554923 0 0 0
Si1 Si4+ 0.040112 0.01660341 0.00499949 0 0 0
P1 P5+ 0.040112 0.01660341 0.00499949 0 0 0
P2 P5+ 0.02821076 0.02821076 0.0222388 0 0 0
S1 S2- 0.0431867 0.00602902 0.01027062 0 0 0.0003269474
S2 S2- 0.0352539 0.01278197 0.0183129 0 0 -0.01051999
S3 S2- 0.0319181 0.01223997 0.01176644 0 0 0.001494267
#End of TTdata_252036-ICSD
