(C) 2022 by FIZ Karlsruhe - Leibniz Institute for Information Infrastructure.  All rights reserved.
data_48716-ICSD
_database_code_ICSD 48716
_audit_creation_date 2023-02-01
_chemical_name_common 'Lithium tin thiodiphosphate chloride'
_chemical_formula_structural 'Li9.9 Sn P2 S11.9 Cl0.1'
_chemical_formula_sum 'Cl0.1 Li9.9 P2 S11.9 Sn1'
_chemical_name_structure_type Li10GeP2S12-frame#LGPS-type
_exptl_crystal_density_diffrn 2.16
_citation_title

;
Cl-doped Li$_{10}$SnP$_2$S$_{12}$ with enhanced ionic conductivity and lower
Li-ion migration barrier
;
loop_
_citation_id
_citation_journal_full
_citation_year
_citation_journal_volume
_citation_page_first
_citation_page_last
_citation_journal_id_ASTM
primary 'ACS Applied Materials & Interfaces' 2022 14 22225 22232 AAMICK
loop_
_citation_author_citation_id
_citation_author_name
primary 'Wang, Qingtao'
primary 'Liu, Dongxu'
primary 'Ma, Xuefang'
primary 'Zhou, Xiaozhong'
primary 'Lei, Ziqiang'
_cell_length_a 8.74263(11)
_cell_length_b 8.74263(11)
_cell_length_c 12.7701(2)
_cell_angle_alpha 90.
_cell_angle_beta 90.
_cell_angle_gamma 90.
_cell_volume 976.05
_cell_formula_units_Z 2
_space_group_name_H-M_alt 'P 42/n m c Z'
_space_group_IT_number 137
loop_
_space_group_symop_id
_space_group_symop_operation_xyz
1 'y+1/2, x+1/2, -z+1/2'
2 '-y, x+1/2, -z+1/2'
3 'y+1/2, -x, -z+1/2'
4 '-y, -x, -z+1/2'
5 'x+1/2, y+1/2, -z'
6 '-x, y+1/2, -z'
7 'x+1/2, -y, -z'
8 '-x, -y, -z'
9 '-y+1/2, -x+1/2, z+1/2'
10 'y, -x+1/2, z+1/2'
11 '-y+1/2, x, z+1/2'
12 'y, x, z+1/2'
13 '-x+1/2, -y+1/2, z'
14 'x, -y+1/2, z'
15 '-x+1/2, y, z'
16 'x, y, z'
loop_
_atom_type_symbol
_atom_type_oxidation_number
Li1+ 1
P5+ 5
Sn4+ 4
P5+ 5
S2- -2
Cl1- -1
S2- -2
Cl1- -1
S2- -2
Cl1- -1
loop_
_atom_site_label
_atom_site_type_symbol
_atom_site_symmetry_multiplicity
_atom_site_Wyckoff_symbol
_atom_site_fract_x
_atom_site_fract_y
_atom_site_fract_z
_atom_site_U_iso_or_equiv
_atom_site_occupancy
Li1 Li1+ 4 d 0.25 0.25 0.8063 0.07726 1.
Li2 Li1+ 16 h 0.473 0.493 0.785 0.08929 0.3
Li3 Li1+ 16 h 0.514 0.49 0.928 0.09024 0.48
Li4 Li1+ 4 c 0.25 0.75 1.0042 0.08602 0.8
P1 P5+ 2 a 0.75 0.25 0.75 0.027(7) 1.
Sn1 Sn4+ 4 d 0.25 0.25 1.0616(2) 0.022(3) 0.5
P2 P5+ 4 d 0.25 0.25 1.0616(2) 0.022(3) 0.5
S1 S2- 8 g 0.5614(4) 0.25 0.8427(3) 0.025(4) 0.992
Cl1 Cl1- 8 g 0.5614(4) 0.25 0.8427(3) 0.025(4) 0.008
S2 S2- 8 g 0.25 0.4647(5) 0.6561(4) 0.046(5) 0.992
Cl2 Cl1- 8 g 0.25 0.4647(5) 0.6561(4) 0.046(5) 0.008
S3 S2- 8 g 0.25 0.4580(4) 0.9571(3) 0.028(4) 0.992
Cl3 Cl1- 8 g 0.25 0.4580(4) 0.9571(3) 0.028(4) 0.008
loop_
_atom_site_aniso_label
_atom_site_aniso_type_symbol
_atom_site_aniso_U_11
_atom_site_aniso_U_22
_atom_site_aniso_U_33
_atom_site_aniso_U_12
_atom_site_aniso_U_13
_atom_site_aniso_U_23
Li1 Li1+ 0.08976 0.09882 0.04321 0. 0. 0.
Li2 Li1+ 0.13111 0.01615 0.12062 0.01715 -0.1007 -0.0212
Li3 Li1+ 0.03833 0.06153 0.17085 -0.0242 -0.001 -0.0161
Li4 Li1+ 0.15129 0.05952 0.04726 0. 0. 0.
P1 P5+ 0.017(5) 0.017(5) 0.048(11) 0. 0. 0.
Sn1 Sn4+ 0.029(3) 0.019(3) 0.018(3) 0. 0. 0.
P2 P5+ 0.029(3) 0.019(3) 0.018(3) 0. 0. 0.
S1 S2- 0.008(4) 0.051(5) 0.017(4) 0. 0.00532 0.
Cl1 Cl1- 0.008(4) 0.051(5) 0.017(4) 0. 0.00532 0.
S2 S2- 0.050(5) 0.043(4) 0.043(5) 0. 0. 0.0039
Cl2 Cl1- 0.050(5) 0.043(4) 0.043(5) 0. 0. 0.0039
S3 S2- 0.023(5) 0.022(4) 0.040(5) 0. 0. -0.012
Cl3 Cl1- 0.023(5) 0.022(4) 0.040(5) 0. 0. -0.012
#End of TTdata_48716-ICSD
#
