(C) 2022 by FIZ Karlsruhe - Leibniz Institute for Information Infrastructure.  All rights reserved.
data_5668-ICSD
_database_code_ICSD 5668
_audit_creation_date 2020-02-01
_chemical_name_common
'Lithium tin silicon phosphorus sulfide (10.5/0.3/1.2/1.5/12)'
_chemical_formula_structural 'Li10.5 (Sn0.2 Si0.8)1.5 P1.5 S12'
_chemical_formula_sum 'Li10.5 P1.5 S12 Si1.2 Sn0.3'
_chemical_name_structure_type Li10GeP2S12-frame#LGPS-type
_exptl_crystal_density_diffrn 1.98
_diffrn_ambient_temperature 300.
_citation_title

;
Conduction mechanism of Li$_{10}$GeP$_2$S$_{12}$-type lithium superionic
conductors in a Li–Sn–Si–P–S system
;
loop_
_citation_id
_citation_journal_full
_citation_year
_citation_journal_volume
_citation_page_first
_citation_page_last
_citation_journal_id_ASTM
primary 'Chemistry of Materials' 2019 31 3485 3490 CMATEX
loop_
_citation_author_citation_id
_citation_author_name
primary 'Inagaki, Makoto'
primary 'Suzuki, Kota'
primary 'Hori, Satoshi'
primary 'Yoshino, Kazuhiro'
primary 'Matsui, Naoki'
primary 'Yonemura, Masao'
primary 'Hirayama, Masaaki'
primary 'Kanno, Ryoji'
_cell_length_a 8.71240(3)
_cell_length_b 8.71240(3)
_cell_length_c 12.64584(7)
_cell_angle_alpha 90.
_cell_angle_beta 90.
_cell_angle_gamma 90.
_cell_volume 959.89
_cell_formula_units_Z 2
_space_group_name_H-M_alt 'P 42/n m c S'
_space_group_IT_number 137
loop_
_space_group_symop_id
_space_group_symop_operation_xyz
1 '-y+1/2, -x+1/2, z+1/2'
2 'y+1/2, x+1/2, z+1/2'
3 '-y, -x, -z'
4 'y, x, -z'
5 'y+1/2, -x+1/2, z+1/2'
6 '-y+1/2, x+1/2, z+1/2'
7 'y, -x, -z'
8 '-y, x, -z'
9 'x+1/2, -y+1/2, -z+1/2'
10 '-x+1/2, y+1/2, -z+1/2'
11 'x, -y, z'
12 '-x, y, z'
13 '-x+1/2, -y+1/2, -z+1/2'
14 'x+1/2, y+1/2, -z+1/2'
15 '-x, -y, z'
16 'x, y, z'
loop_
_atom_type_symbol
_atom_type_oxidation_number
Li1+ 1
Sn4+ 4
Si4+ 4
P5+ 5
S2- -2
loop_
_atom_site_label
_atom_site_type_symbol
_atom_site_symmetry_multiplicity
_atom_site_Wyckoff_symbol
_atom_site_fract_x
_atom_site_fract_y
_atom_site_fract_z
_atom_site_B_iso_or_equiv
_atom_site_occupancy
Li1 Li1+ 16 h 0.2504(4) 0.2610(4) 0.1913(3) . 0.515(5)
Li2 Li1+ 4 d 0 0.5 0.9434(3) . 1.
Li3 Li1+ 8 f 0.2431(3) 0.2431(4) 0 . 0.726(10)
Li4 Li1+ 4 c 0 0 0.2454(4) . 0.738(4)
Sn1 Sn4+ 4 d 0 0.5 0.68978(8) . 0.15
Si1 Si4+ 4 d 0 0.5 0.68978(8) . 0.6
P1 P5+ 4 d 0 0.5 0.68978(8) . 0.25
P2 P5+ 2 b 0 0 0.5 . 1.
S1 S2- 8 g 0 0.18814(15) 0.40817(13) . 1.
S2 S2- 8 g 0 0.29602(14) 0.10102(15) . 1.
S3 S2- 8 g 0 0.69546(17) 0.78651(12) . 1.
loop_
_atom_site_aniso_label
_atom_site_aniso_type_symbol
_atom_site_aniso_beta_11
_atom_site_aniso_beta_22
_atom_site_aniso_beta_33
_atom_site_aniso_beta_12
_atom_site_aniso_beta_13
_atom_site_aniso_beta_23
Li1 Li1+ 6.7(3) 2.5(3) 17.8(8) 2.34(17) -2.2(3) -4.6(3)
Li2 Li1+ 8.2(3) 9.1(3) 8.4(6) 0 0 0
Li3 Li1+ 8.8(3) 8.8(3) 22.9(8) -4.9(3) 4.7(2) 4.7(2)
Li4 Li1+ 9.6(5) 11.6(5) 10.0(4) 0 0 0
Sn1 Sn4+ 2.57(7) 2.56(7) 2.42(7) 0 0 0
Si1 Si4+ 2.57(7) 2.56(7) 2.42(7) 0 0 0
P1 P5+ 2.57(7) 2.56(7) 2.42(7) 0 0 0
P2 P5+ 4.40(6) 4.40(6) 4.39(11) 0 0 0
S1 S2- 4.41(9) 4.34(9) 4.26(9) 0 0 0.26(10)
S2 S2- 4.29(9) 4.78(9) 4.26(8) 0 0 -0.20(7)
S3 S2- 3.96(8) 3.93(9) 3.74(9) 0 00 0.06(8)
#End of TTdata_5668-ICSD
#
