(C) 2022 by FIZ Karlsruhe - Leibniz Institute for Information Infrastructure.  All rights reserved.
data_246757-ICSD
_database_code_ICSD 246757
_audit_creation_date 2010-02-01
_chemical_name_common 'Lithium zinc molybdate(VI) (1.93/2.03/3)'
_chemical_formula_structural 'Li1.93 Zn2.03 (Mo O4)3'
_chemical_formula_sum 'Li1.93 Mo3 O12 Zn2.03'
_chemical_name_structure_type Lyonsite#Li3Fe(MoO4)3
_exptl_crystal_density_diffrn 4.39
_citation_title

;
Revised phase diagram of Li2 Mo O4 - Zn Mo O4 system, crystal structure and
crystal growth of lithium zinc molybdate
;
loop_
_citation_id
_citation_journal_full
_citation_year
_citation_journal_volume
_citation_page_first
_citation_page_last
_citation_journal_id_ASTM
primary 'Journal of Solid State Chemistry' 2009 182 1935 1943 JSSCBI
loop_
_citation_author_citation_id
_citation_author_name
primary 'Solodovnikov, S.F.'
primary 'Solodovnikova, Z.A.'
primary 'Zolotova, E.S.'
primary 'Yudanova, L.I.'
primary 'Kardash, T.Yu.'
primary 'Pavlyuk, A.A.'
primary Nadolinny,V.A.
_cell_length_a 5.1100(2)
_cell_length_b 10.5070(6)
_cell_length_c 17.6474(10)
_cell_angle_alpha 90.
_cell_angle_beta 90.
_cell_angle_gamma 90.
_cell_volume 947.5
_cell_formula_units_Z 4
_space_group_name_H-M_alt 'P n m a'
_space_group_IT_number 62
loop_
_space_group_symop_id
_space_group_symop_operation_xyz
1 'x+1/2, y, -z+1/2'
2 'x, -y+1/2, z'
3 '-x+1/2, y+1/2, z+1/2'
4 '-x, -y, -z'
5 '-x+1/2, -y, z+1/2'
6 '-x, y+1/2, -z'
7 'x+1/2, -y+1/2, -z+1/2'
8 'x, y, z'
loop_
_atom_type_symbol
_atom_type_oxidation_number
Mo6+ 6
Li1+ 1
Zn2+ 2
Li1+ 1
Zn2+ 2
Li1+ 1
Zn2+ 2
O2- -2
loop_
_atom_site_label
_atom_site_type_symbol
_atom_site_symmetry_multiplicity
_atom_site_Wyckoff_symbol
_atom_site_fract_x
_atom_site_fract_y
_atom_site_fract_z
_atom_site_U_iso_or_equiv
_atom_site_occupancy
Mo1 Mo6+ 4 c 0.27857(6) 0.25 0.44317(2) 0.00835(7) 1.
Mo2 Mo6+ 8 d 0.77671(4) 0.52677(2) 0.34347(1) 0.00936(6) 1.
Li1 Li1+ 4 c 0.2445(3) 0.75 0.30214(10) 0.0135(5) 0.801(2)
Zn1 Zn2+ 4 c 0.2445(3) 0.75 0.30214(10) 0.0135(5) 0.199(2)
Li2 Li1+ 8 d 0.25460(8) 0.57871(4) 0.47103(2) 0.01128(12) 0.281(2)
Zn2 Zn2+ 8 d 0.25460(8) 0.57871(4) 0.47103(2) 0.01128(12) 0.719(2)
Li3 Li1+ 4 c 0.6060(2) 0.25 0.24901(6) 0.0152(3) 0.570(7)
Zn4 Zn2+ 4 c 0.6060(2) 0.25 0.24901(6) 0.0152(3) 0.396(3)
O1 O2- 4 c 0.3603(5) 0.25 0.34700(14) 0.0134(5) 1.
O2 O2- 4 c 0.5557(5) 0.25 0.50683(15) 0.0131(5) 1.
O3 O2- 8 d 0.0808(4) 0.11589(18) 0.46274(10) 0.0132(3) 1.
O4 O2- 8 d 0.5824(4) 0.48902(18) 0.42489(10) 0.0142(3) 1.
O5 O2- 8 d 0.5778(4) 0.6233(2) 0.28709(11) 0.0170(4) 1.
O6 O2- 8 d 0.8549(4) 0.38483(18) 0.29535(10) 0.0134(3) 1.
O7 O2- 8 d 1.0595(4) 0.61338(18) 0.37303(10) 0.0139(3) 1.
#End of TTdata_246757-ICSD
#
