(C) 2022 by FIZ Karlsruhe - Leibniz Institute for Information Infrastructure.  All rights reserved.
data_162961-ICSD
_database_code_ICSD 162961
_audit_creation_date 2009-08-01
_chemical_name_common 'Lithium zinc molybdate (1.96/2.05/3)'
_chemical_formula_structural '(Li1.955 Zn2.045) (Mo O4)3'
_chemical_formula_sum 'Li1.955 Mo3 O12 Zn2.045'
_chemical_name_structure_type Lyonsite#Li3Fe(MoO4)3
_exptl_crystal_density_diffrn 4.4
_diffrn_ambient_temperature 293.
_citation_title

;
Growth, structures and properties of Li2 Zn2 (Mo O4)3 and Co-doped Li2 Zn2 (Mo
O4)3
;
loop_
_citation_id
_citation_journal_full
_citation_year
_citation_journal_volume
_citation_page_first
_citation_page_last
_citation_journal_id_ASTM
primary 'Crystal Growth & Design' 2009 9 914 920 CGDEFU
loop_
_citation_author_citation_id
_citation_author_name
primary 'Xue Liping'
primary 'Wang Yongjing'
primary 'Lv Peiwen'
primary 'Chen Dagui'
primary 'Lin Zhang'
primary 'Liang Jing Kui'
primary 'Huang Feng'
primary 'Xie Zhi'
_cell_length_a 5.1042(10)
_cell_length_b 10.506(2)
_cell_length_c 17.638(3)
_cell_angle_alpha 90.
_cell_angle_beta 90.
_cell_angle_gamma 90.
_cell_volume 945.83
_cell_formula_units_Z 4
_space_group_name_H-M_alt 'P n m a'
_space_group_IT_number 62
loop_
_space_group_symop_id
_space_group_symop_operation_xyz
1 'x+1/2, y, -z+1/2'
2 'x, -y+1/2, z'
3 '-x+1/2, y+1/2, z+1/2'
4 '-x, -y, -z'
5 '-x+1/2, -y, z+1/2'
6 '-x, y+1/2, -z'
7 'x+1/2, -y+1/2, -z+1/2'
8 'x, y, z'
loop_
_atom_type_symbol
_atom_type_oxidation_number
Mo6+ 6
Zn2+ 2
Li1+ 1
Zn2+ 2
Li1+ 1
Zn2+ 2
Li1+ 1
O2- -2
loop_
_atom_site_label
_atom_site_type_symbol
_atom_site_symmetry_multiplicity
_atom_site_Wyckoff_symbol
_atom_site_fract_x
_atom_site_fract_y
_atom_site_fract_z
_atom_site_U_iso_or_equiv
_atom_site_occupancy
Mo1 Mo6+ 4 c 1.77854(2) 0.75 -0.056728(7) 0.00710(3) 1
Mo2 Mo6+ 8 d 0.723215(17) 0.526716(8) 0.156502(5) 0.00808(2) 1
Zn1 Zn2+ 8 d 1.24515(3) 0.578639(16) 0.029086(10) 0.01023(4) 0.7303(5)
Li1 Li1+ 8 d 1.24515(3) 0.578639(16) 0.029086(10) 0.01023(4) 0.269(4)
Zn2 Zn2+ 4 c 0.25591(14) 0.75 0.19781(5) 0.0122(2) 0.1770(6)
Li2 Li1+ 4 c 0.25591(14) 0.75 0.19781(5) 0.0122(2) 0.823(4)
Zn3 Zn2+ 4 c 0.89376(9) 0.25 0.25098(2) 0.01547(10) 0.4046(6)
Li3 Li1+ 4 c 0.89376(9) 0.25 0.25098(2) 0.01547(10) 0.595(4)
O1 O2- 4 c 1.8599(2) 0.75 -0.15282(6) 0.0126(3) 1
O2 O2- 8 d 1.58045(14) 0.61585(7) -0.03730(4) 0.01211(17) 1
O3 O2- 4 c 1.0563(2) 0.75 0.00677(6) 0.0120(2) 1
O4 O2- 8 d 0.91781(16) 0.48920(7) 0.07489(4) 0.01300(18) 1
O5 O2- 8 d 0.44069(15) 0.61365(7) 0.12704(4) 0.01408(18) 1
O6 O2- 8 d 0.64495(16) 0.38498(7) 0.20478(4) 0.01327(18) 1
O7 O2- 8 d 0.92260(16) 0.62334(8) 0.21283(5) 0.0166(2) 1
loop_
_atom_site_aniso_label
_atom_site_aniso_type_symbol
_atom_site_aniso_U_11
_atom_site_aniso_U_22
_atom_site_aniso_U_33
_atom_site_aniso_U_12
_atom_site_aniso_U_13
_atom_site_aniso_U_23
Mo1 Mo6+ 0.00670(4) 0.00822(5) 0.00637(5) 0. 0.00007(4) 0.
Mo2 Mo6+ 0.00795(4) 0.00874(5) 0.00756(4) -0.00047(3) -0.00006(3) 0.00135(3)
Zn1 Zn2+ 0.00932(8) 0.01184(8) 0.00953(7) 0.00009(5) -0.00073(5) 0.00089(6)
Li1 Li1+ 0.00932(8) 0.01184(8) 0.00953(7) 0.00009(5) -0.00073(5) 0.00089(6)
Zn2 Zn2+ 0.0115(3) 0.0122(4) 0.0129(4) 0. 0.0017(3) 0.
Li2 Li1+ 0.0115(3) 0.0122(4) 0.0129(4) 0. 0.0017(3) 0.
Zn3 Zn2+ 0.0244(2) 0.01050(16) 0.01155(18) 0. -0.00260(16) 0.
Li3 Li1+ 0.0244(2) 0.01050(16) 0.01155(18) 0. -0.00260(16) 0.
O1 O2- 0.0125(5) 0.0136(4) 0.0118(5) 0. 0.0017(4) 0.
O2 O2- 0.0104(3) 0.0135(3) 0.0124(3) 0.0002(3) 0.0015(3) 0.0017(3)
O3 O2- 0.0113(4) 0.0101(4) 0.0144(5) 0. -0.0029(4) 0.
O4 O2- 0.0112(3) 0.0163(3) 0.0115(3) -0.0017(3) 0.0002(3) 0.0023(3)
O5 O2- 0.0141(3) 0.0172(3) 0.0109(3) 0.0020(3) -0.0013(3) -0.0006(3)
O6 O2- 0.0134(3) 0.0124(3) 0.0140(3) 0.0009(3) 0.0018(3) 0.0032(3)
O7 O2- 0.0151(3) 0.0196(4) 0.0151(4) -0.0021(3) -0.0016(3) -0.0022(3)
#End of TTdata_162961-ICSD
#
