(C) 2022 by FIZ Karlsruhe - Leibniz Institute for Information Infrastructure.  All rights reserved.
data_1082-ICSD
_database_code_ICSD 1082
_audit_creation_date 1980-01-01
_audit_update_record 2012-08-01
_chemical_name_common 'Dilithium dinickel tris(molybdate)'
_chemical_formula_structural 'Li2 Ni2 (Mo O4)3'
_chemical_formula_sum 'Li2 Mo3 Ni2 O12'
_chemical_name_structure_type Lyonsite#Li3Fe(MoO4)3
_exptl_crystal_density_diffrn 4.38
_citation_title

;
The crystal structure of a lithium-nickel molybdate, Li2 Ni2 Mo3 O12 , and the
systematics of the structure type
;
loop_
_citation_id
_citation_journal_full
_citation_year
_citation_journal_volume
_citation_page_first
_citation_page_last
_citation_journal_id_ASTM
primary

;
Acta Crystallographica, Section B: Structural Crystallography and Crystal
Chemistry
; 1977 33 2175 2181 ACBCAR
loop_
_citation_author_citation_id
_citation_author_name
primary 'Ozima, M.'
primary 'Sato, S.'
primary 'Zoltai, T.'
_cell_length_a 10.423(3)
_cell_length_b 17.525(4)
_cell_length_c 5.074(1)
_cell_angle_alpha 90.
_cell_angle_beta 90.
_cell_angle_gamma 90.
_cell_volume 926.83
_cell_formula_units_Z 4
_space_group_name_H-M_alt 'P m c n'
_space_group_IT_number 62
loop_
_space_group_symop_id
_space_group_symop_operation_xyz
1 'x, -y+1/2, z+1/2'
2 '-x+1/2, y, z'
3 'x+1/2, y+1/2, -z+1/2'
4 '-x, -y, -z'
5 '-x, y+1/2, -z+1/2'
6 'x+1/2, -y, -z'
7 '-x+1/2, -y+1/2, z+1/2'
8 'x, y, z'
loop_
_atom_type_symbol
_atom_type_oxidation_number
Mo6+ 6
Ni2+ 2
Li1+ 1
O2- -2
loop_
_atom_site_label
_atom_site_type_symbol
_atom_site_symmetry_multiplicity
_atom_site_Wyckoff_symbol
_atom_site_fract_x
_atom_site_fract_y
_atom_site_fract_z
_atom_site_B_iso_or_equiv
_atom_site_occupancy
Mo1 Mo6+ 4 c 0.75 0.0565 0.7158(1) . 1.
Mo2 Mo6+ 8 d 0.4738 0.1564 0.2211(1) . 1.
Ni1 Ni2+ 8 d 0.4284(1) 0.0265(1) 0.7475(2) . 0.731
Ni2 Ni2+ 4 c 0.75 0.2506(1) 0.3919(4) . 0.538
Li1 Li1+ 4 c 0.25 0.1951(10) 0.7568(43) . 1.
Li2 Li1+ 8 d 0.4284(1) 0.0265(1) 0.7475(2) . 0.269
Li3 Li1+ 4 c 0.75 0.2506(1) 0.3919(4) . 0.462
O1 O2- 4 c 0.25 0.0065(4) 0.5632(12) . 1.
O2 O2- 4 c 0.75 0.1544(3) 0.6358(12) . 1.
O3 O2- 8 d 0.6176(4) 0.2048(2) 0.1400(8) . 1.
O4 O2- 8 d 0.3774(5) 0.2135(3) 0.4202(10) . 1.
O5 O2- 8 d 0.3866(4) 0.1255(2) 0.9403(9) . 1.
O6 O2- 8 d 0.5122(4) 0.0745(2) 0.4207(8) . 1.
O7 O2- 8 d 0.6148(4) 0.0363(2) 0.9185(8) . 1.
#End of TTdata_1082-ICSD
#
