(C) 2022 by FIZ Karlsruhe - Leibniz Institute for Information Infrastructure.  All rights reserved.
data_250073-ICSD
_database_code_ICSD 250073
_audit_creation_date 2004-04-01
_audit_update_record 2006-04-01
_chemical_name_common 'Cobalt chromium vanadate (5/2.67/6)'
_chemical_formula_structural 'Co5 Cr2.667 (V O4)6'
_chemical_formula_sum 'Co5 Cr2.667 O24 V6'
_chemical_name_structure_type Lyonsite#Li3Fe(MoO4)3
_exptl_crystal_density_diffrn 4.31
_citation_title 'Synthesis and crystal structure of Co5 Cr2.667 (V O4)6'
loop_
_citation_id
_citation_journal_full
_citation_year
_citation_journal_volume
_citation_page_first
_citation_page_last
_citation_journal_id_ASTM
primary 'Zhurnal Neorganicheskoi Khimii' 2003 48 709 714 ZNOKAQ
loop_
_citation_author_citation_id
_citation_author_name
primary 'Malakho, A.P.'
primary 'Belik, A.A.'
primary 'Lazoryak, B.I.'
_cell_length_a 4.9752(1)
_cell_length_b 10.1543(2)
_cell_length_c 17.1255(3)
_cell_angle_alpha 90
_cell_angle_beta 90
_cell_angle_gamma 90
_cell_volume 865.17
_cell_formula_units_Z 2
_space_group_name_H-M_alt 'P n m a'
_space_group_IT_number 62
loop_
_space_group_symop_id
_space_group_symop_operation_xyz
1 'x+1/2, y, -z+1/2'
2 'x, -y+1/2, z'
3 '-x+1/2, y+1/2, z+1/2'
4 '-x, -y, -z'
5 '-x+1/2, -y, z+1/2'
6 '-x, y+1/2, -z'
7 'x+1/2, -y+1/2, -z+1/2'
8 'x, y, z'
loop_
_atom_type_symbol
_atom_type_oxidation_number
Co2+ 2
Cr3+ 3
V5+ 5
O2- -2
loop_
_atom_site_label
_atom_site_type_symbol
_atom_site_symmetry_multiplicity
_atom_site_Wyckoff_symbol
_atom_site_fract_x
_atom_site_fract_y
_atom_site_fract_z
_atom_site_B_iso_or_equiv
_atom_site_occupancy
Co1 Co2+ 4 c 0.241(2) 0.25 0.8044(3) 0.5(1) 1.
Co2 Co2+ 8 d 0.253(1) 0.4262(3) 0.9735(2) 0.35(9) 0.75
Cr1 Cr3+ 8 d 0.253(1) 0.4262(3) 0.9735(2) 0.35(9) 0.25
Cr2 Cr3+ 4 c 0.903(1) 0.75 0.7497(5) 1.4(2) 0.833
V1 V5+ 4 c -0.218(2) 0.25 0.0576(3) 0.5(1) 1.
V2 V5+ 8 d 0.720(1) 0.4720(3) 0.8430(2) 0.3(1) 1.
O1 O2- 8 d 0.644(3) 0.615(1) 0.7967(7) 0.9(4) 1.
O2 O2- 8 d 0.419(4) 0.386(1) 0.8713(7) 0.1(4) 1.
O3 O2- 4 c 0.063(5) 0.25 0.996(1) 0.9(4) 1.
O4 O2- 8 d 0.581(3) 0.385(1) 0.0324(8) 1.4(4) 1.
O5 O2- 8 d 0.917(3) 0.508(1) 0.9263(8) 1.2(4) 1.
O6 O2- 4 c 0.656(6) 0.75 0.653(1) 1.1(6) 1.
O7 O2- 8 d -0.083(4) 0.379(1) 0.7863(7) 1.2(4) 1.
#End of TTdata_250073-ICSD
#
