(C) 2022 by FIZ Karlsruhe - Leibniz Institute for Information Infrastructure.  All rights reserved.
data_401169-ICSD
_database_code_ICSD 401169
_audit_creation_date 1995-10-17
_chemical_name_common 'Dilithium dicobalt tris(molybdate)'
_chemical_formula_structural 'Li2 Co2 (Mo O4)3'
_chemical_formula_sum 'Co2 Li2 Mo3 O12'
_chemical_name_structure_type Lyonsite#Li3Fe(MoO4)3
_exptl_crystal_density_diffrn 4.33
_diffrn_ambient_temperature 299.
_citation_title 'The Structure of Lithiumcobaltmolybdate Li2 Co2 (Mo O4)3'
loop_
_citation_id
_citation_journal_full
_citation_year
_citation_journal_volume
_citation_page_first
_citation_page_last
_citation_journal_id_ASTM
primary 'Zeitschrift fuer Kristallographie' 1995 210 525 525 ZEKRDZ
loop_
_citation_author_citation_id
_citation_author_name
primary 'Wiesmann, M.'
primary 'Svoboda, H.'
primary 'Weitzel, H.'
primary 'Fuess, H.'
_cell_length_a 5.086(1)
_cell_length_b 10.484(2)
_cell_length_c 17.6060(20)
_cell_angle_alpha 90.
_cell_angle_beta 90.
_cell_angle_gamma 90.
_cell_volume 938.78
_cell_formula_units_Z 4
_space_group_name_H-M_alt 'P n m a'
_space_group_IT_number 62
loop_
_space_group_symop_id
_space_group_symop_operation_xyz
1 'x+1/2, y, -z+1/2'
2 'x, -y+1/2, z'
3 '-x+1/2, y+1/2, z+1/2'
4 '-x, -y, -z'
5 '-x+1/2, -y, z+1/2'
6 '-x, y+1/2, -z'
7 'x+1/2, -y+1/2, -z+1/2'
8 'x, y, z'
loop_
_atom_type_symbol
_atom_type_oxidation_number
Mo6+ 6
Co2+ 2
Li1+ 1
Co2+ 2
Li1+ 1
Co2+ 2
Li1+ 1
O2- -2
loop_
_atom_site_label
_atom_site_type_symbol
_atom_site_symmetry_multiplicity
_atom_site_Wyckoff_symbol
_atom_site_fract_x
_atom_site_fract_y
_atom_site_fract_z
_atom_site_B_iso_or_equiv
_atom_site_occupancy
Mo1 Mo6+ 4 c 1.21995(5) 0.25 1.05681(2) . 1.
Mo2 Mo6+ 8 d 0.27763(4) 0.02753(2) 0.84331(1) . 1.
Co1 Co2+ 8 d 0.75206(9) 0.07404(5) 0.97283(3) . 0.66
Li1 Li1+ 8 d 0.75206(9) 0.07404(5) 0.97283(3) . 0.34
Co2 Co2+ 4 c 1.3928(2) 0.25 1.24956(5) . 0.51
Li2 Li1+ 4 c 1.3928(2) 0.25 1.24956(5) . 0.49
Co3 Co2+ 4 c 0.7480(3) 0.25 0.80236(11) . 0.21
Li3 Li1+ 4 c 0.7480(3) 0.25 0.80236(11) . 0.79
O1 O2- 8 d 0.5601(4) 0.1141(2) 0.87336(9) . 1.
O2 O2- 4 c 1.1374(6) 0.25 1.15351(13) . 1.
O3 O2- 8 d 1.4181(3) 0.1151(2) 1.0371(1) . 1.
O4 O2- 4 c 0.9412(5) 0.25 0.99406(14) . 1.
O5 O2- 8 d 0.3576(4) -.1151(2) 0.7952(1) . 1.
O6 O2- 8 d 0.0830(4) -.0099(2) 0.92474(9) . 1.
O7 O2- 8 d 0.0779(4) 0.1238(2) 0.78648(10) . 1.
loop_
_atom_site_aniso_label
_atom_site_aniso_type_symbol
_atom_site_aniso_U_11
_atom_site_aniso_U_22
_atom_site_aniso_U_33
_atom_site_aniso_U_12
_atom_site_aniso_U_13
_atom_site_aniso_U_23
Mo1 Mo6+ 0.00884(14) 0.00981(14) 0.00913(14) 0 0.00002(8) 0
Mo2 Mo6+ 0.00995(12) 0.01083(12) 0.00969(12) 0.00044(6) 0.00008(6) -.00086(6)
Co1 Co2+ 0.0099(2) 0.0120(3) 0.0104(3) 0.00002(14) -.00029(14) -.0007(2)
Li1 Li1+ 0.0099(2) 0.0120(3) 0.0104(3) 0.00002(14) -.00029(14) -.0007(2)
Co2 Co2+ 0.0275(5) 0.0106(4) 0.0100(4) 0 0.0017(3) 0
Li2 Li1+ 0.0275(5) 0.0106(4) 0.0100(4) 0 0.0017(3) 0
Co3 Co2+ 0.0131(9) 0.0135(9) 0.0143(9) 0 0.0015(6) 0
Li3 Li1+ 0.0131(9) 0.0135(9) 0.0143(9) 0 0.0015(6) 0
O1 O2- 0.0165(8) 0.0164(8) 0.0133(7) -.0027(7) -.0009(6) 0.0016(6)
O2 O2- 0.0183(12) 0.0162(11) 0.0136(11) 0 0.0028(9) 0
O3 O2- 0.0127(8) 0.0140(7) 0.0164(7) 0.0003(6) 0.0011(6) -.0011(6)
O4 O2- 0.0140(11) 0.0129(10) 0.0176(11) 0 -.0047(9) 0
O5 O2- 0.0162(8) 0.0153(8) 0.0151(7) 0.0008(6) 0.0010(6) -.0029(6)
O6 O2- 0.0129(8) 0.0185(8) 0.0137(7) 0.0016(6) 0.0014(6) 0.0003(6)
O7 O2- 0.0169(8) 0.0206(8) 0.0182(8) 0.0040(7) -.0007(6) 0.0027(7)
#End of TTdata_401169-ICSD
#
