(C) 2022 by FIZ Karlsruhe - Leibniz Institute for Information Infrastructure.  All rights reserved.
data_141003-ICSD
_database_code_ICSD 141003
_audit_creation_date 2021-02-01
_chemical_name_common 'Sodium-0.33 lithium-2.67 chromium(III) tris(molybdate)'
_chemical_formula_structural '(Na0.33 Li0.67) (Li2 Cr) (Mo O4)3'
_chemical_formula_sum 'Cr1 Li2.67 Mo3 Na0.33 O12'
_chemical_name_structure_type Lyonsite#Li3Fe(MoO4)3
_exptl_crystal_density_diffrn 3.97
_diffrn_ambient_temperature 298.
_citation_title

;
Structural study, CHARDI and BVS validation and ionic migration pathways of a
new lyonsite (Na$_{1/3}$Li$_{2/3}$)(Li$_2$,Cr)(MoO$_4$)$_3$
;
loop_
_citation_id
_citation_journal_full
_citation_year
_citation_journal_volume
_citation_page_first
_citation_page_last
_citation_journal_id_ASTM
primary 'Journal of Solid State Chemistry' 2019 272 244 248 JSSCBI
loop_
_citation_author_citation_id
_citation_author_name
primary 'Sonni, M.'
primary 'Zid, M.F.'
primary 'Issaoui, C.'
_cell_length_a 5.100(2)
_cell_length_b 10.483(2)
_cell_length_c 17.458(3)
_cell_angle_alpha 90
_cell_angle_beta 90
_cell_angle_gamma 90
_cell_volume 933.36
_cell_formula_units_Z 4
_space_group_name_H-M_alt 'P n m a'
_space_group_IT_number 62
loop_
_space_group_symop_id
_space_group_symop_operation_xyz
1 'x+1/2, y, -z+1/2'
2 'x, -y+1/2, z'
3 '-x+1/2, y+1/2, z+1/2'
4 '-x, -y, -z'
5 '-x+1/2, -y, z+1/2'
6 '-x, y+1/2, -z'
7 'x+1/2, -y+1/2, -z+1/2'
8 'x, y, z'
loop_
_atom_type_symbol
_atom_type_oxidation_number
Mo6+ 6
Na1+ 1
Li1+ 1
O2- -2
Cr3+ 3
Li1+ 1
Cr3+ 3
Li1+ 1
Mo6+ 6
loop_
_atom_site_label
_atom_site_type_symbol
_atom_site_symmetry_multiplicity
_atom_site_Wyckoff_symbol
_atom_site_fract_x
_atom_site_fract_y
_atom_site_fract_z
_atom_site_U_iso_or_equiv
_atom_site_occupancy
Mo1 Mo6+ 4 c 0.28005(14) 0.25 0.44252(4) 0.01015(19) 1
Na1 Na1+ 4 c 0.2547(14) 0.75 0.3080(4) 0.018(2) 0.327(18)
Li1 Li1+ 4 c 0.2547(14) 0.75 0.3080(4) 0.018(2) 0.67(2)
O1 O2- 4 c 0.3596(13) 0.25 0.3424(3) 0.0178(13) 1
O2 O2- 8 d 0.3579(8) 0.3779(4) 0.2057(2) 0.0153(9) 1
O3 O2- 8 d 0.0900(8) 0.6191(4) 0.2126(2) 0.0203(10) 1
O4 O2- 8 d 0.0794(10) 0.4861(4) 0.0747(2) 0.0187(10) 1
O5 O2- 4 c 0.5529(13) 0.25 0.5058(3) 0.0208(14) 1
O6 O2- 8 d 0.5575(9) 0.6071(4) 0.1244(2) 0.0191(10) 1
O7 O2- 8 d 0.0815(9) 0.3825(4) 0.4629(2) 0.0185(9) 1
Cr1 Cr3+ 4 c 0.6072(5) 0.25 0.25028(14) 0.0059(8) 0.407(6)
Li2 Li1+ 4 c 0.6072(5) 0.25 0.25028(14) 0.0059(8) 0.593(9)
Cr2 Cr3+ 8 d 0.2570(6) 0.5683(3) 0.47548(14) 0.0113(9) 0.284(6)
Li3 Li1+ 8 d 0.2570(6) 0.5683(3) 0.47548(14) 0.0113(9) 0.716(7)
Mo2 Mo6+ 8 d 0.28098(10) 0.52206(5) 0.15528(3) 0.01163(17) 1
loop_
_atom_site_aniso_label
_atom_site_aniso_type_symbol
_atom_site_aniso_U_11
_atom_site_aniso_U_22
_atom_site_aniso_U_33
_atom_site_aniso_U_12
_atom_site_aniso_U_13
_atom_site_aniso_U_23
Mo1 Mo6+ 0.0125(4) 0.0122(3) 0.0058(3) 0. 0.0000(3) 0.
Na1 Na1+ 0.022(5) 0.013(4) 0.018(4) 0. 0.003(3) 0.
Li1 Li1+ 0.022(5) 0.013(4) 0.018(4) 0. 0.003(3) 0.
O1 O2- 0.028(3) 0.015(3) 0.010(3) 0. 0.001(2) 0.
O2 O2- 0.020(2) 0.0137(19) 0.0119(19) 0.002(2) -0.0001(16) 0.0026(17)
O3 O2- 0.021(2) 0.022(2) 0.018(2) 0.003(2) 0.0017(18) -0.003(2)
O4 O2- 0.019(3) 0.024(2) 0.013(2) 0.004(2) 0.0019(19) 0.0039(19)
O5 O2- 0.019(3) 0.030(4) 0.013(3) 0. -0.003(3) 0.
O6 O2- 0.022(2) 0.021(2) 0.014(2) -0.002(2) -0.0021(18) 0.0017(19)
O7 O2- 0.020(2) 0.018(2) 0.018(2) 0.005(2) 0.0030(18) -0.0008(18)
Cr1 Cr3+ 0.0071(15) 0.0064(12) 0.0042(13) 0. 0.0010(10) 0.
Li2 Li1+ 0.0071(15) 0.0064(12) 0.0042(13) 0. 0.0010(10) 0.
Cr2 Cr3+ 0.0123(16) 0.0154(14) 0.0060(14) 0.0021(11) -0.0007(10) -0.0025(10)
Li3 Li1+ 0.0123(16) 0.0154(14) 0.0060(14) 0.0021(11) -0.0007(10) -0.0025(10)
Mo2 Mo6+ 0.0145(3) 0.0113(3) 0.0090(3) 0.0014(2) -0.00038(19) 0.00241(19)
#End of TTdata_141003-ICSD
#
