(C) 2022 by FIZ Karlsruhe - Leibniz Institute for Information Infrastructure.  All rights reserved.
data_140454-ICSD
_database_code_ICSD 140454
_audit_creation_date 2020-08-01
_chemical_name_common 'Trizinc copper(II)-0.8 tris(vanado-molybdate)'
_chemical_formula_structural '(Zn3 Cu0.8) ((V0.5 Mo0.5) O4)3'
_chemical_formula_sum 'Cu0.8 Mo1.5 O12 V1.5 Zn3'
_chemical_name_structure_type Lyonsite#Li3Fe(MoO4)3
_exptl_crystal_density_diffrn 4.77
_diffrn_ambient_temperature 300.
_citation_title

;
Novel compositions and physical property comparisons for
(A,A$^{\prime}$)$_{2.5}$ VMoO8 lyonsites (A=Zn, A$^{\prime}$=Mn, Ni, Cu)
;
loop_
_citation_id
_citation_journal_full
_citation_year
_citation_journal_volume
_citation_page_first
_citation_page_last
_citation_journal_id_ASTM
primary 'Journal of Solid State Chemistry' 2019 271 154 161 JSSCBI
loop_
_citation_author_citation_id
_citation_author_name
primary 'Tang, Joseph N.'
primary 'Subramanian, M.A.'
_cell_length_a 5.01934(8)
_cell_length_b 10.40366(19)
_cell_length_c 17.59796(31)
_cell_angle_alpha 90.
_cell_angle_beta 90.
_cell_angle_gamma 90.
_cell_volume 918.95
_cell_formula_units_Z 4
_space_group_name_H-M_alt 'P n m a'
_space_group_IT_number 62
loop_
_space_group_symop_id
_space_group_symop_operation_xyz
1 'x+1/2, y, -z+1/2'
2 'x, -y+1/2, z'
3 '-x+1/2, y+1/2, z+1/2'
4 '-x, -y, -z'
5 '-x+1/2, -y, z+1/2'
6 '-x, y+1/2, -z'
7 'x+1/2, -y+1/2, -z+1/2'
8 'x, y, z'
loop_
_atom_type_symbol
_atom_type_oxidation_number
Zn2+ 2
Cu2+ 2
Zn2+ 2
Cu2+ 2
Zn2+ 2
Cu2+ 2
V5+ 5
Mo6+ 6
V5+ 5
Mo6+ 6
O2- -2
loop_
_atom_site_label
_atom_site_type_symbol
_atom_site_symmetry_multiplicity
_atom_site_Wyckoff_symbol
_atom_site_fract_x
_atom_site_fract_y
_atom_site_fract_z
_atom_site_U_iso_or_equiv
_atom_site_occupancy
Zn1 Zn2+ 4 c 0.3947(13) 0.25 0.2529(4) 0.0474(21) 0.731(26)
Cu1 Cu2+ 4 c 0.3947(13) 0.25 0.2529(4) 0.0474(21) 0.019(26)
Zn2 Zn2+ 8 d 0.7488(6) 0.07973(25) 0.52836(18) 0.0180(7) 0.853(15)
Cu2 Cu2+ 8 d 0.7488(6) 0.07973(25) 0.52836(18) 0.0180(7) 0.147(15)
Zn3 Zn2+ 4 c 0.7678(9) 0.25 0.68406(24) 0.0318(15) 0.525(39)
Cu3 Cu2+ 4 c 0.7678(9) 0.25 0.68406(24) 0.0318(15) 0.475(39)
V1 V5+ 4 c 0.2156(13) 0.25 0.44273(34) 0.0040(20) 0.503
Mo1 Mo6+ 4 c 0.2156(13) 0.25 0.44273(34) 0.0040(20) 0.497(11)
V2 V5+ 8 d 0.7158(9) -0.0273(4) 0.34218(24) 0.0111(16) 0.488
Mo2 Mo6+ 8 d 0.7158(9) -0.0273(4) 0.34218(24) 0.0111(16) 0.512(7)
O1 O2- 4 c 0.1419(8) 0.25 0.34931(21) 0.01827 1.
O2 O2- 4 c -0.0580(8) 0.25 0.50692(25) 0.01688 1.
O3 O2- 8 d 0.4169(6) 0.11530(26) 0.46366(18) 0.01242 1.
O4 O2- 8 d 0.4337(5) -0.11711(29) 0.37233(17) 0.01428 1.
O5 O2- 8 d 0.9375(6) -0.12534(28) 0.28923(17) 0.02105 1.
O6 O2- 8 d 0.6537(4) 0.11092(24) 0.29618(17) 0.01573 1.
O7 O2- 8 d 0.9106(6) 0.00641(28) 0.42473(17) 0.01419 1.
loop_
_atom_site_aniso_label
_atom_site_aniso_type_symbol
_atom_site_aniso_U_11
_atom_site_aniso_U_22
_atom_site_aniso_U_33
_atom_site_aniso_U_12
_atom_site_aniso_U_13
_atom_site_aniso_U_23
O1 O2- 0.0194(23) 0.0255(27) 0.0099(19) 0. -0.0056(16) 0.
O2 O2- 0.0158(20) 0.0106(20) 0.0243(25) 0. 0.0013(18) 0.
O3 O2- 0.0041(14) 0.0156(14) 0.0176(14) 0.0036(12) -0.0003(11) 0.0054(14)
O4 O2- 0.0133(12) 0.0147(14) 0.0149(13) -0.0009(12) 0.0014(14) -0.0064(13)
O5 O2- 0.0184(13) 0.0236(16) 0.0212(15) 0.0072(12) -0.0030(13) -0.0066(14)
O6 O2- 0.0166(13) 0.0182(16) 0.0124(15) 0.0025(12) 0.0039(12) 0.0048(13)
O7 O2- 0.0177(15) 0.0144(14) 0.0105(14) 0.0049(13) -0.0023(12) 0.0039(11)
#End of TTdata_140454-ICSD
#
