(C) 2022 by FIZ Karlsruhe - Leibniz Institute for Information Infrastructure.  All rights reserved.
data_106060-ICSD
_database_code_ICSD 106060
_audit_creation_date 2004-10-01
_chemical_name_common 'Lithium copper molybdate (1.94/2..06/3)'
_chemical_formula_structural 'Li1.94 Cu2.06 (Mo O4)3'
_chemical_formula_sum 'Cu2.06 Li1.94 Mo3 O12'
_chemical_name_structure_type Lyonsite#Li3Fe(MoO4)3
_exptl_crystal_density_diffrn 4.51
_diffrn_ambient_temperature 298.
_citation_title
'Crystal structure of lithium copper molybdate, Li2 Cu2 (Mo O4)3'
loop_
_citation_id
_citation_journal_full
_citation_year
_citation_journal_volume
_citation_page_first
_citation_page_last
_citation_journal_id_ASTM
primary 'Zeitschrift fuer Kristallographie' 1994 209 615 615 ZEKRDZ
loop_
_citation_author_citation_id
_citation_author_name
primary 'Wiesmann, M.'
primary 'Geselle, M.'
primary 'Weitzel, H.'
primary 'Fuess, H.'
_cell_length_a 10.4796(7)
_cell_length_b 5.0172(7)
_cell_length_c 17.479(1)
_cell_angle_alpha 90.
_cell_angle_beta 90.
_cell_angle_gamma 90.
_cell_volume 919.02
_cell_formula_units_Z 4
_space_group_name_H-M_alt 'P m n b'
_space_group_IT_number 62
loop_
_space_group_symop_id
_space_group_symop_operation_xyz
1 'x, y+1/2, -z+1/2'
2 '-x+1/2, y, z'
3 'x+1/2, -y+1/2, z+1/2'
4 '-x, -y, -z'
5 '-x, -y+1/2, z+1/2'
6 'x+1/2, -y, -z'
7 '-x+1/2, y+1/2, -z+1/2'
8 'x, y, z'
loop_
_atom_type_symbol
_atom_type_oxidation_number
Mo6+ 6
Cu2+ 1.971
Li1+ 1
O2- -2
loop_
_atom_site_label
_atom_site_type_symbol
_atom_site_symmetry_multiplicity
_atom_site_Wyckoff_symbol
_atom_site_fract_x
_atom_site_fract_y
_atom_site_fract_z
_atom_site_U_iso_or_equiv
_atom_site_occupancy
Mo1 Mo6+ 8 d -.02710(5) 0.7186(1) 0.34413(3) 0.0129 1.
Mo2 Mo6+ 4 c 0.25 0.2245(1) 0.44246(3) 0.0162 1.
Cu1 Cu2+ 4 c 0.75 0.2068(2) 0.32393(6) 0.0158 0.28
Cu2 Cu2+ 8 d 0.4272(1) 0.7519(3) 0.52594(6) 0.0113 0.495
Cu3 Cu2+ 4 c 0.25 0.8887(7) 0.2498(2) 0.017 0.79
Li1 Li1+ 4 c 0.75 0.2068(2) 0.32393(6) 0.0158 0.72
Li2 Li1+ 8 d 0.4272(1) 0.7519(3) 0.52594(6) 0.0113 0.505
Li3 Li1+ 4 c 0.25 0.8887(7) 0.2498(2) 0.017 0.21
O1 O2- 8 d 0.4892(5) 0.9144(9) 0.4256(3) 0.02 1.
O2 O2- 8 d -.1165(5) 0.4312(9) 0.3743(3) 0.02 1.
O3 O2- 8 d 0.3875(5) 0.6409(9) 0.2948(2) 0.019 1.
O4 O2- 8 d -.1239(5) 0.9312(9) 0.2889(3) 0.023 1.
O5 O2- 4 c 0.25 0.955(1) 0.5094(3) 0.022 1.
O6 O2- 4 c 0.25 0.130(1) 0.3463(3) 0.021 1.
O7 O2- 8 d 0.3857(6) 0.427(1) 0.4607(3) 0.027 1.
#End of TTdata_106060-ICSD
#
