(C) 2022 by FIZ Karlsruhe - Leibniz Institute for Information Infrastructure.  All rights reserved.
data_262791-ICSD
_database_code_ICSD 262791
_audit_creation_date 2012-08-01
_chemical_name_common 'Trilithium aluminium tris(molybdate(VI))'
_chemical_formula_structural 'Li3 Al (Mo O4)3'
_chemical_formula_sum 'Al1 Li3 Mo3 O12'
_chemical_name_structure_type Lyonsite#Li3Fe(MoO4)3
_exptl_crystal_density_diffrn 3.9
_diffrn_ambient_temperature 298.
_citation_title 'Li3 Al (Mo O4)3, a lyonsite molybdate'
loop_
_citation_id
_citation_journal_full
_citation_year
_citation_journal_volume
_citation_page_first
_citation_page_last
_citation_journal_id_ASTM
primary 'Acta Crystallographica, Section C: Crystal Structure Communications'
2012 68 i34 i36 ACSCEE
loop_
_citation_author_citation_id
_citation_author_name
primary 'Bugaris, D.E.'
primary 'zur Loye, H.C.'
_cell_length_a 5.0372(10)
_cell_length_b 10.320(2)
_cell_length_c 17.272(4)
_cell_angle_alpha 90.
_cell_angle_beta 90.
_cell_angle_gamma 90.
_cell_volume 897.87
_cell_formula_units_Z 4
_space_group_name_H-M_alt 'P n m a'
_space_group_IT_number 62
loop_
_space_group_symop_id
_space_group_symop_operation_xyz
1 'x+1/2, y, -z+1/2'
2 'x, -y+1/2, z'
3 '-x+1/2, y+1/2, z+1/2'
4 '-x, -y, -z'
5 '-x+1/2, -y, z+1/2'
6 '-x, y+1/2, -z'
7 'x+1/2, -y+1/2, -z+1/2'
8 'x, y, z'
loop_
_atom_type_symbol
_atom_type_oxidation_number
Li1+ 1
Al3+ 3
Li1+ 1
Al3+ 3
Li1+ 1
Mo6+ 6
O2- -2
loop_
_atom_site_label
_atom_site_type_symbol
_atom_site_symmetry_multiplicity
_atom_site_Wyckoff_symbol
_atom_site_fract_x
_atom_site_fract_y
_atom_site_fract_z
_atom_site_U_iso_or_equiv
_atom_site_occupancy
Li1 Li1+ 8 d -0.2424(3) 0.07138(18) 0.52567(10) 0.0143(4) 0.721(2)
Al1 Al3+ 8 d -0.2424(3) 0.07138(18) 0.52567(10) 0.0143(4) 0.279(2)
Li2 Li1+ 4 c 0.3952(3) 0.25 0.25035(9) 0.0097(4) 0.558(5)
Al2 Al3+ 4 c 0.3952(3) 0.25 0.25035(9) 0.0097(4) 0.442(4)
Li3 Li1+ 4 c -0.2535(12) 0.25 0.6959(4) 0.0249(13) 1
Mo1 Mo6+ 4 c 0.21939(5) 0.25 0.442175(14) 0.01130(7) 1
Mo2 Mo6+ 8 d -0.27972(4) -0.023570(18) 0.343878(10) 0.01200(7) 1
O1 O2- 4 c 0.1429(5) 0.25 0.34148(13) 0.0192(5) 1
O2 O2- 8 d 0.4216(4) 0.11598(16) 0.46301(9) 0.0212(4) 1
O3 O2- 4 c -0.0569(5) 0.25 0.50654(13) 0.0240(5) 1
O4 O2- 8 d 0.1446(4) 0.12339(15) 0.20699(9) 0.0176(3) 1
O5 O2- 8 d -0.0798(4) 0.01325(17) 0.42573(9) 0.0193(3) 1
O6 O2- 8 d -0.4391(3) 0.11071(16) 0.62544(10) 0.0212(3) 1
O7 O2- 8 d -0.0816(4) -0.12129(17) 0.28713(10) 0.0242(4) 1
loop_
_atom_site_aniso_label
_atom_site_aniso_type_symbol
_atom_site_aniso_U_11
_atom_site_aniso_U_22
_atom_site_aniso_U_33
_atom_site_aniso_U_12
_atom_site_aniso_U_13
_atom_site_aniso_U_23
Li1 Li1+ 0.0123(8) 0.0180(8) 0.0125(8) -0.0009(6) -0.0002(6) 0.0039(6)
Al1 Al3+ 0.0123(8) 0.0180(8) 0.0125(8) -0.0009(6) -0.0002(6) 0.0039(6)
Li2 Li1+ 0.0095(8) 0.0097(8) 0.0099(7) 0. -0.0007(6) 0.
Al2 Al3+ 0.0095(8) 0.0097(8) 0.0099(7) 0. -0.0007(6) 0.
Li3 Li1+ 0.024(3) 0.027(3) 0.024(3) 0. -0.004(2) 0.
Mo1 Mo6+ 0.01160(12) 0.01323(13) 0.00908(12) 0. -0.00015(8) 0.
Mo2 Mo6+ 0.01278(10) 0.01106(10) 0.01214(10) 0.00103(6) -0.00103(6) 0.00171(6)
O1 O2- 0.0300(13) 0.0135(11) 0.0140(10) 0. -0.0036(9) 0.
O2 O2- 0.0235(9) 0.0216(9) 0.0185(8) 0.0028(7) -0.0018(7) 0.0006(6)
O3 O2- 0.0186(12) 0.0364(15) 0.0169(11) 0. 0.0002(9) 0.
O4 O2- 0.0245(8) 0.0133(7) 0.0150(7) 0.0006(7) 0.0004(6) -0.0015(6)
O5 O2- 0.0167(8) 0.0252(9) 0.0161(7) -0.0001(7) 0.0001(6) 0.0013(6)
O6 O2- 0.0239(8) 0.0166(8) 0.0230(8) -0.0045(7) -0.0059(7) 0.0017(6)
O7 O2- 0.0215(9) 0.0261(9) 0.0252(9) 0.0064(7) -0.0017(7) -0.0057(7)
#End of TTdata_262791-ICSD
#
