(C) 2022 by FIZ Karlsruhe - Leibniz Institute for Information Infrastructure.  All rights reserved.
data_246759-ICSD
_database_code_ICSD 246759
_audit_creation_date 2010-02-01
_chemical_name_common 'Lithium zinc molybdate(VI) (1.55/2.23/3)'
_chemical_formula_structural 'Li1.55 Zn2.23 (Mo O4)3'
_chemical_formula_sum 'Li1.55 Mo3 O12 Zn2.23'
_chemical_name_structure_type Lyonsite#Li3Fe(MoO4)3
_exptl_crystal_density_diffrn 4.46
_citation_title

;
Revised phase diagram of Li2 Mo O4 - Zn Mo O4 system, crystal structure and
crystal growth of lithium zinc molybdate
;
loop_
_citation_id
_citation_journal_full
_citation_year
_citation_journal_volume
_citation_page_first
_citation_page_last
_citation_journal_id_ASTM
primary 'Journal of Solid State Chemistry' 2009 182 1935 1943 JSSCBI
loop_
_citation_author_citation_id
_citation_author_name
primary 'Solodovnikov, S.F.'
primary 'Solodovnikova, Z.A.'
primary 'Zolotova, E.S.'
primary 'Yudanova, L.I.'
primary 'Kardash, T.Yu.'
primary 'Pavlyuk, A.A.'
primary Nadolinny,V.A.
_cell_length_a 5.0790(1)
_cell_length_b 10.5421(2)
_cell_length_c 17.7161(3)
_cell_angle_alpha 90.
_cell_angle_beta 90.
_cell_angle_gamma 90.
_cell_volume 948.58
_cell_formula_units_Z 4
_space_group_name_H-M_alt 'P n m a'
_space_group_IT_number 62
loop_
_space_group_symop_id
_space_group_symop_operation_xyz
1 'x+1/2, y, -z+1/2'
2 'x, -y+1/2, z'
3 '-x+1/2, y+1/2, z+1/2'
4 '-x, -y, -z'
5 '-x+1/2, -y, z+1/2'
6 '-x, y+1/2, -z'
7 'x+1/2, -y+1/2, -z+1/2'
8 'x, y, z'
loop_
_atom_type_symbol
_atom_type_oxidation_number
Mo6+ 6
Li1+ 1
Zn2+ 2
Li1+ 1
Zn2+ 2
Li1+ 1
Zn2+ 2
O2- -2
loop_
_atom_site_label
_atom_site_type_symbol
_atom_site_symmetry_multiplicity
_atom_site_Wyckoff_symbol
_atom_site_fract_x
_atom_site_fract_y
_atom_site_fract_z
_atom_site_U_iso_or_equiv
_atom_site_occupancy
Mo1 Mo6+ 4 c 0.27758(5) 0.25 0.44375(1) 0.00888(7) 1.
Mo2 Mo6+ 8 d 0.77632(3) 0.52735(2) 0.34374(1) 0.00996(7) 1.
Li1 Li1+ 4 c 0.2434(3) 0.75 0.30225(9) 0.0143(5) 0.816(2)
Zn1 Zn2+ 4 c 0.2434(3) 0.75 0.30225(9) 0.0143(5) 0.184(2)
Li2 Li1+ 8 d 0.25488(6) 0.57874(3) 0.47095(2) 0.01143(12) 0.270(2)
Zn2 Zn2+ 8 d 0.25488(6) 0.57874(3) 0.47095(2) 0.01143(12) 0.730(2)
Li3 Li1+ 4 c 0.6076(2) 0.25 0.24914(4) 0.0354(3) 0.190(6)
Zn4 Zn2+ 4 c 0.6076(2) 0.25 0.24914(4) 0.0354(3) 0.582(2)
O1 O2- 4 c 0.3628(5) 0.25 0.34845(12) 0.0158(4) 1.
O2 O2- 4 c 0.5558(4) 0.25 0.50731(12) 0.0137(4) 1.
O3 O2- 8 d 0.0792(3) 0.11592(14) 0.46301(8) 0.0135(3) 1.
O4 O2- 8 d 0.5816(3) 0.48941(14) 0.42509(8) 0.0141(3) 1.
O5 O2- 8 d 0.5773(3) 0.62358(16) 0.28729(9) 0.0181(3) 1.
O6 O2- 8 d 0.8571(3) 0.38637(15) 0.29595(9) 0.0164(3) 1.
O7 O2- 8 d 1.0601(3) 0.61409(15) 0.37309(8) 0.0149(3) 1.
#End of TTdata_246759-ICSD
#
