(C) 2022 by FIZ Karlsruhe - Leibniz Institute for Information Infrastructure.  All rights reserved.
data_380277-ICSD
_database_code_ICSD 380277
_audit_creation_date 2013-08-01
_chemical_name_common 'Dilithium dizinc tris(molybdate(VI))'
_chemical_formula_structural 'Li2 Zn2 (Mo O4)3'
_chemical_formula_sum 'Li2 Mo3 O12 Zn2'
_chemical_name_structure_type Lyonsite#Li3Fe(MoO4)3
_exptl_crystal_density_diffrn 4.38
_diffrn_ambient_temperature 296.
_citation_title

;
Structure and properties of Li2 Zn2 (Mo O4)3 crystals activated with copper
and chromium ions
;
loop_
_citation_id
_citation_journal_full
_citation_year
_citation_journal_volume
_citation_page_first
_citation_page_last
_citation_journal_id_ASTM
primary 'Journal of Structural Chemistry' 2011 52 708 712 JSTCAM
loop_
_citation_author_citation_id
_citation_author_name
primary 'Nadolinny, V.A.'
primary 'Pavlyuk, A.A.'
primary 'Solodovnikov, S.F.'
primary 'Solodovnikova, Z.A.'
primary 'Zolotova, E.S.'
primary 'Nebogatikova, N.A.'
primary 'Plyusnin, V.F.'
primary 'Ryadun, A.A.'
_cell_length_a 5.1139(5)
_cell_length_b 10.4926(13)
_cell_length_c 17.645(2)
_cell_angle_alpha 90.
_cell_angle_beta 90.
_cell_angle_gamma 90.
_cell_volume 946.8
_cell_formula_units_Z 4
_space_group_name_H-M_alt 'P n m a'
_space_group_IT_number 62
loop_
_space_group_symop_id
_space_group_symop_operation_xyz
1 'x+1/2, y, -z+1/2'
2 'x, -y+1/2, z'
3 '-x+1/2, y+1/2, z+1/2'
4 '-x, -y, -z'
5 '-x+1/2, -y, z+1/2'
6 '-x, y+1/2, -z'
7 'x+1/2, -y+1/2, -z+1/2'
8 'x, y, z'
loop_
_atom_type_symbol
_atom_type_oxidation_number
Mo6+ 6
Zn2+ 2
Li1+ 1
Zn2+ 2
Li1+ 1
Zn2+ 2
Li1+ 1
O2- -2
loop_
_atom_site_label
_atom_site_type_symbol
_atom_site_symmetry_multiplicity
_atom_site_Wyckoff_symbol
_atom_site_fract_x
_atom_site_fract_y
_atom_site_fract_z
_atom_site_U_iso_or_equiv
_atom_site_occupancy
Mo1 Mo6+ 4 c 0.27824(9) 0.25 0.44306(3) 0.00707(12) 1
Mo2 Mo6+ 8 d 0.77643(7) 0.52677(4) 0.34343(2) 0.00817(11) 1
Zn1 Zn2+ 4 c 0.2445(5) 0.75 0.30201(18) 0.0133(7) 0.203(2)
Li1 Li1+ 4 c 0.2445(5) 0.75 0.30201(18) 0.0133(7) 0.8
Zn2 Zn2+ 8 d 0.25466(13) 0.57863(7) 0.47097(4) 0.01007(18) 0.7158(17)
Li2 Li1+ 8 d 0.25466(13) 0.57863(7) 0.47097(4) 0.01007(18) 0.28
Zn3 Zn2+ 4 c 0.6052(4) 0.25 0.24916(10) 0.0107(5) 0.365(3)
Li3 Li1+ 4 c 0.6052(4) 0.25 0.24916(10) 0.0107(5) 0.63
O1 O2- 4 c 0.3599(9) 0.25 0.3470(2) 0.0124(9) 1
O2 O2- 4 c 0.5561(9) 0.25 0.5067(3) 0.0109(9) 1
O3 O2- 8 d 0.0810(6) 0.1158(3) 0.46267(18) 0.0130(6) 1
O4 O2- 8 d 0.5829(6) 0.4893(3) 0.42480(18) 0.0123(6) 1
O5 O2- 8 d 0.5777(7) 0.6234(3) 0.28707(19) 0.0167(7) 1
O6 O2- 8 d 0.8541(6) 0.3847(3) 0.29512(18) 0.0115(6) 1
O7 O2- 8 d 1.0588(6) 0.6136(3) 0.37292(19) 0.0139(6) 1
loop_
_atom_site_aniso_label
_atom_site_aniso_type_symbol
_atom_site_aniso_U_11
_atom_site_aniso_U_22
_atom_site_aniso_U_33
_atom_site_aniso_U_12
_atom_site_aniso_U_13
_atom_site_aniso_U_23
Mo1 Mo6+ 0.0065(2) 0.0079(2) 0.0068(2) 0. 0.00002(17) 0.
Mo2 Mo6+ 0.00786(18) 0.00829(18) 0.00834(18) 0.00030(12) 0.00012(12)
-0.00160(12)
Zn1 Zn2+ 0.0094(14) 0.0134(14) 0.0170(15) 0. 0.0008(10) 0.
Li1 Li1+ 0.0094(14) 0.0134(14) 0.0170(15) 0. 0.0008(10) 0.
Zn2 Zn2+ 0.0089(3) 0.0110(3) 0.0102(3) 0.0001(2) -0.0007(2) -0.0003(3)
Li2 Li1+ 0.0089(3) 0.0110(3) 0.0102(3) 0.0001(2) -0.0007(2) -0.0003(3)
Zn3 Zn2+ 0.0116(9) 0.0101(8) 0.0103(9) 0. -0.0007(6) 0.
Li3 Li1+ 0.0116(9) 0.0101(8) 0.0103(9) 0. -0.0007(6) 0.
O1 O2- 0.015(2) 0.013(2) 0.009(2) 0. 0.0017(17) 0.
O2 O2- 0.0093(19) 0.010(2) 0.013(2) 0. -0.0030(16) 0.
O3 O2- 0.0100(14) 0.0154(15) 0.0136(16) -0.0011(12) 0.0026(12) 0.0010(13)
O4 O2- 0.0100(14) 0.0163(16) 0.0106(14) 0.0008(12) 0.0015(12) 0.0009(12)
O5 O2- 0.0165(16) 0.0197(18) 0.0139(17) 0.0020(13) -0.0003(13) 0.0023(14)
O6 O2- 0.0105(14) 0.0120(15) 0.0121(15) -0.0006(12) 0.0018(11) -0.0028(12)
O7 O2- 0.0148(15) 0.0163(16) 0.0107(15) -0.0027(13) -0.0005(12) -0.0001(13)
#End of TTdata_380277-ICSD
#
