(C) 2022 by FIZ Karlsruhe - Leibniz Institute for Information Infrastructure.  All rights reserved.
data_230755-ICSD
_database_code_ICSD 230755
_audit_creation_date 2019-08-01
_chemical_name_common 'Zinc cobalt vanadate molybdate (1.25/1.25/1/1)'
_chemical_formula_structural 'Zn1.25 Co1.25 V Mo O8'
_chemical_formula_sum 'Co1.25 Mo1 O8 V1 Zn1.25'
_chemical_name_structure_type Lyonsite#Li3Fe(MoO4)3
_exptl_crystal_density_diffrn 4.67
_citation_title
'Structural investigation and selected properties of Zn2.5-xCoxVMoO8 lyonsites'
loop_
_citation_id
_citation_journal_full
_citation_year
_citation_journal_volume
_citation_page_first
_citation_page_last
_citation_journal_id_ASTM
primary 'Journal of Solid State Chemistry' 2018 266 155 160 JSSCBI
loop_
_citation_author_citation_id
_citation_author_name
primary 'Tang, Joseph N.'
primary 'Li, Jun'
primary 'Subramanian, M.A.'
_cell_length_a 5.0497(1)
_cell_length_b 10.389(1)
_cell_length_c 17.497(1)
_cell_angle_alpha 90.
_cell_angle_beta 90.
_cell_angle_gamma 90.
_cell_volume 917.92
_cell_formula_units_Z 6
_space_group_name_H-M_alt 'P n m a'
_space_group_IT_number 62
loop_
_space_group_symop_id
_space_group_symop_operation_xyz
1 'x+1/2, y, -z+1/2'
2 'x, -y+1/2, z'
3 '-x+1/2, y+1/2, z+1/2'
4 '-x, -y, -z'
5 '-x+1/2, -y, z+1/2'
6 '-x, y+1/2, -z'
7 'x+1/2, -y+1/2, -z+1/2'
8 'x, y, z'
loop_
_atom_type_symbol
_atom_type_oxidation_number
Zn2+ 2
Co2+ 2
Zn2+ 2
Co2+ 2
Zn2+ 2
Co2+ 2
V5+ 5
Mo6+ 6
V5+ 5
Mo6+ 6
O2- -2
loop_
_atom_site_label
_atom_site_type_symbol
_atom_site_symmetry_multiplicity
_atom_site_Wyckoff_symbol
_atom_site_fract_x
_atom_site_fract_y
_atom_site_fract_z
_atom_site_U_iso_or_equiv
_atom_site_occupancy
Zn1 Zn2+ 4 c 0.3945(1) 0.25 0.2515(4) 0.042(5) 0.24(2)
Co1 Co2+ 4 c 0.3945(1) 0.25 0.2515(4) 0.042(5) 0.51(2)
Zn2 Zn2+ 8 d 0.7509(6) 0.0796(2) 0.5279(1) 0.010(1) 0.47(1)
Co2 Co2+ 8 d 0.7509(6) 0.0796(2) 0.5279(1) 0.010(1) 0.53(1)
Zn3 Zn2+ 4 c 0.7506(7) 0.25 0.6953(2) 0.009(2) 0.60(2)
Co3 Co2+ 4 c 0.7506(7) 0.25 0.6953(2) 0.009(2) 0.40(2)
V1 V5+ 4 c 0.2166(9) 0.25 0.4430(2) 0.004(3) 0.48(1)
Mo1 Mo6+ 4 c 0.2166(9) 0.25 0.4430(2) 0.004(3) 0.52(1)
V2 V5+ 8 d 0.7174(6) -0.0278(2) 0.3432(2) 0.004(2) 0.50(1)
Mo2 Mo6+ 8 d 0.7174(6) -0.0278(2) 0.3432(2) 0.004(2) 0.50(1)
O1 O2- 4 c 0.1424(6) 0.25 0.3478(1) . 1.
O2 O2- 4 c -0.0619(6) 0.25 0.5070(1) . 1.
O3 O2- 8 d 0.4155(4) 0.1149(2) 0.4635(1) . 1.
O4 O2- 8 d 0.4362(5) -0.1147(2) 0.3719(1) . 1.
O5 O2- 8 d 0.9237(4) -0.1262(1) 0.2864(1) . 1.
O6 O2- 8 d 0.6485(4) 0.1127(1) 0.2959(1) . 1.
O7 O2- 8 d 0.9141(4) 0.0071(2) 0.4239(1) . 1.
#End of TTdata_230755-ICSD
#
