(C) 2022 by FIZ Karlsruhe - Leibniz Institute for Information Infrastructure.  All rights reserved.
data_167529-ICSD
_database_code_ICSD 167529
_audit_creation_date 2011-02-01
_chemical_name_common 'Lithium vanadium molybdate (2.96/1.04/3)'
_chemical_formula_structural 'Li2.96 V1.04 (Mo O4)3'
_chemical_formula_sum 'Li2.96 Mo3 O12 V1.04'
_chemical_name_structure_type Lyonsite#Li3Fe(MoO4)3
_exptl_crystal_density_diffrn 3.97
_diffrn_ambient_temperature 299.
_citation_title
'Li3 V (Mo O4)3 : a new material for both Li extraction and insertion'
loop_
_citation_id
_citation_journal_full
_citation_year
_citation_journal_volume
_citation_page_first
_citation_page_last
_citation_journal_id_ASTM
primary 'Chemistry of Materials' 2010 22 3165 3173 CMATEX
loop_
_citation_author_citation_id
_citation_author_name
primary 'Mikhailova, D.'
primary 'Sarapulova, A.'
primary 'Voss, A.'
primary 'Thomas, A.'
primary 'Oswald, S.'
primary 'Gruner, W.'
primary 'Trots, D.M.'
primary 'Bramnik, N.N.'
primary 'Ehrenberg, H.'
_cell_length_a 5.0575(4)
_cell_length_b 10.4562(10)
_cell_length_c 17.5105(17)
_cell_angle_alpha 90.
_cell_angle_beta 90.
_cell_angle_gamma 90.
_cell_volume 925.99
_cell_formula_units_Z 4
_space_group_name_H-M_alt 'P n m a'
_space_group_IT_number 62
loop_
_space_group_symop_id
_space_group_symop_operation_xyz
1 'x+1/2, y, -z+1/2'
2 'x, -y+1/2, z'
3 '-x+1/2, y+1/2, z+1/2'
4 '-x, -y, -z'
5 '-x+1/2, -y, z+1/2'
6 '-x, y+1/2, -z'
7 'x+1/2, -y+1/2, -z+1/2'
8 'x, y, z'
loop_
_atom_type_symbol
_atom_type_oxidation_number
Mo6+ 6
V3+ 2.77
Li1+ 1
V3+ 3
Li1+ 1
O2- -2
loop_
_atom_site_label
_atom_site_type_symbol
_atom_site_symmetry_multiplicity
_atom_site_Wyckoff_symbol
_atom_site_fract_x
_atom_site_fract_y
_atom_site_fract_z
_atom_site_U_iso_or_equiv
_atom_site_occupancy
Mo1 Mo6+ 4 c 0.22132(9) -0.25 0.05740(3) 0.01093(18) 1
Mo2 Mo6+ 8 d 0.27837(7) -0.02615(3) -0.156185(19) 0.01091(17) 1
V1 V3+ 4 c 0.6097(4) 0.25 -0.24949(11) 0.0158(7) 0.444(5)
Li1 Li1+ 4 c 0.6097(4) 0.25 -0.24949(11) 0.0158(7) 0.56
V2 V3+ 8 d 0.7532(3) -0.0710(2) -0.02561(11) 0.0129(7) 0.300(4)
Li2 Li1+ 8 d 0.7532(3) -0.0710(2) -0.02561(11) 0.0129(7) 0.7
Li3 Li1+ 4 c 0.749(2) -0.25 -0.1960(7) 0.025(2) 1
O1 O2- 8 d 0.3580(6) 0.1187(3) -0.20522(15) 0.0155(6) 1
O2 O2- 8 d 0.0809(6) -0.1225(3) -0.21288(17) 0.0207(6) 1
O3 O2- 8 d 0.5607(6) -0.1128(3) -0.12599(15) 0.0165(6) 1
O4 O2- 8 d 0.4219(5) -0.1159(3) 0.03735(16) 0.0178(6) 1
O5 O2- 4 c 0.1388(9) -0.25 0.1555(2) 0.0184(9) 1
O6 O2- 8 d 0.0798(6) 0.0103(3) -0.07472(16) 0.0171(6) 1
O7 O2- 4 c -0.0562(8) -0.25 -0.0056(2) 0.0174(8) 1
loop_
_atom_site_aniso_label
_atom_site_aniso_type_symbol
_atom_site_aniso_U_11
_atom_site_aniso_U_22
_atom_site_aniso_U_33
_atom_site_aniso_U_12
_atom_site_aniso_U_13
_atom_site_aniso_U_23
Mo1 Mo6+ 0.0115(3) 0.0110(3) 0.0103(3) 0. 0.00011(16) 0.
Mo2 Mo6+ 0.0113(2) 0.0102(2) 0.0112(2) -0.00089(12) 0.00032(11) 0.00180(12)
V1 V3+ 0.0294(13) 0.0081(9) 0.0098(10) 0. 0.0044(8) 0.
Li1 Li1+ 0.0294(13) 0.0081(9) 0.0098(10) 0. 0.0044(8) 0.
V2 V3+ 0.0127(10) 0.0148(11) 0.0110(11) -0.0005(7) -0.0022(6) 0.0021(8)
Li2 Li1+ 0.0127(10) 0.0148(11) 0.0110(11) -0.0005(7) -0.0022(6) 0.0021(8)
Li3 Li1+ 0.025(6) 0.020(6) 0.029(6) 0. 0.003(4) 0.
O1 O2- 0.0202(15) 0.0132(14) 0.0130(13) 0.0021(12) 0.0011(11) 0.0024(11)
O2 O2- 0.0191(15) 0.0222(16) 0.0209(15) -0.0029(12) 0.0018(12) -0.0034(13)
O3 O2- 0.0193(14) 0.0124(13) 0.0179(14) 0.0031(12) 0.0016(11) -0.0013(11)
O4 O2- 0.0158(13) 0.0192(14) 0.0183(14) 0.0002(12) 0.0007(11) 0.0010(12)
O5 O2- 0.025(2) 0.016(2) 0.014(2) 0. -0.0003(16) 0.
O6 O2- 0.0136(14) 0.0207(14) 0.0170(14) -0.0037(12) -0.0010(12) 0.0012(12)
O7 O2- 0.0171(19) 0.017(2) 0.019(2) 0. -0.0018(16) 0.
#End of TTdata_167529-ICSD
#
