(C) 2022 by FIZ Karlsruhe - Leibniz Institute for Information Infrastructure.  All rights reserved.
data_51335-ICSD
_database_code_ICSD 51335
_audit_creation_date 2002-10-01
_audit_update_record 2005-10-01
_chemical_name_common 'Copper chromium vanadate (4.05/3.4/6) - alpha'
_chemical_formula_structural 'Cu4.05 Cr3.3 (V O4)6'
_chemical_formula_sum 'Cr3.3 Cu4.05 O24 V6'
_chemical_name_structure_type Lyonsite#Li3Fe(MoO4)3
_exptl_crystal_density_diffrn 4.34
_diffrn_ambient_temperature 943.
_citation_title

;
Phase formation in Cu3+1.5x R4-x (V O4)6 (R= Fe and Cr) systems: crystal
structure of Cu2.5 Fe4.333 (V O4)6, Cu4 Fe3.333 (V O4)6 and Cu4.05 Cr3.3 (V
O4)6
;
loop_
_citation_id
_citation_journal_full
_citation_year
_citation_journal_volume
_citation_page_first
_citation_page_last
_citation_journal_id_ASTM
primary 'Journal of Solid State Chemistry' 2001 156 339 348 JSSCBI
loop_
_citation_author_citation_id
_citation_author_name
primary 'Belik, A.A.'
primary 'Malakho, A.P.'
primary 'Pokholok, K.V.'
primary 'Lazoryak, B.I.'
_cell_length_a 4.89650(8)
_cell_length_b 10.2035(2)
_cell_length_c 17.14069(30)
_cell_angle_alpha 90.
_cell_angle_beta 90.
_cell_angle_gamma 90.
_cell_volume 856.37
_cell_formula_units_Z 2
_space_group_name_H-M_alt 'P n m a'
_space_group_IT_number 62
loop_
_space_group_symop_id
_space_group_symop_operation_xyz
1 'x+1/2, y, -z+1/2'
2 'x, -y+1/2, z'
3 '-x+1/2, y+1/2, z+1/2'
4 '-x, -y, -z'
5 '-x+1/2, -y, z+1/2'
6 '-x, y+1/2, -z'
7 'x+1/2, -y+1/2, -z+1/2'
8 'x, y, z'
loop_
_atom_type_symbol
_atom_type_oxidation_number
Cu2+ 2
Cr3+ 3
Cu2+ 2
V5+ 5
O2- -2
loop_
_atom_site_label
_atom_site_type_symbol
_atom_site_symmetry_multiplicity
_atom_site_Wyckoff_symbol
_atom_site_fract_x
_atom_site_fract_y
_atom_site_fract_z
_atom_site_B_iso_or_equiv
_atom_site_occupancy
Cu1 Cu2+ 4 c 0.2071(8) 0.25 0.8233(2) 1.23(8) 1.
Cu2 Cu2+ 8 d 0.2445(5) 0.4279(2) 0.9732(1) 0.10(6) 0.175
Cr1 Cr3+ 8 d 0.2445(5) 0.4279(2) 0.9732(1) 0.10(6) 0.825
Cu3 Cu2+ 4 c 0.9015(8) 0.75 0.7485(2) 1.0(1) 0.675
V1 V5+ 4 c -.2215(9) 0.25 0.0561(2) 0.95(9) 1.
V2 V5+ 8 d 0.7156(6) 0.4726(2) 0.8443(1) 0.78(7) 1.
O1 O2- 8 d 0.653(2) 0.6207(7) 0.7933(4) 1.5(2) 1.
O2 O2- 8 d 0.420(2) 0.3889(8) 0.8726(4) 1.0(2) 1.
O3 O2- 4 c 0.045(2) 0.25 0.9961(6) 0.7(3) 1.
O4 O2- 8 d 0.551(2) 0.3889(8) 0.0312(5) 1.9(3) 1.
O5 O2- 8 d 0.923(1) 0.5014(8) 0.9308(4) 0.7(2) 1.
O6 O2- 4 c 0.652(3) 0.75 0.6514(6) 0.9(3) 1.
O7 O2- 8 d -.079(2) 0.3733(7) 0.7904(4) 1.2(2) 1.
#End of TTdata_51335-ICSD
#
