(C) 2022 by FIZ Karlsruhe - Leibniz Institute for Information Infrastructure.  All rights reserved.
data_140453-ICSD
_database_code_ICSD 140453
_audit_creation_date 2020-08-01
_chemical_name_common 'Trizinc manganese(II)-0.8 tris(vanado-molybdate)'
_chemical_formula_structural '(Zn3 Mn0.8) ((V0.5 Mo0.5) O4)3'
_chemical_formula_sum 'Mn0.8 Mo1.5 O12 V1.5 Zn3'
_chemical_name_structure_type Lyonsite#Li3Fe(MoO4)3
_exptl_crystal_density_diffrn 4.65
_diffrn_ambient_temperature 300.
_citation_title

;
Novel compositions and physical property comparisons for
(A,A$^{\prime}$)$_{2.5}$ VMoO8 lyonsites (A=Zn, A$^{\prime}$=Mn, Ni, Cu)
;
loop_
_citation_id
_citation_journal_full
_citation_year
_citation_journal_volume
_citation_page_first
_citation_page_last
_citation_journal_id_ASTM
primary 'Journal of Solid State Chemistry' 2019 271 154 161 JSSCBI
loop_
_citation_author_citation_id
_citation_author_name
primary 'Tang, Joseph N.'
primary 'Subramanian, M.A.'
_cell_length_a 5.0677(5)
_cell_length_b 10.4492(10)
_cell_length_c 17.6000(20)
_cell_angle_alpha 90.
_cell_angle_beta 90.
_cell_angle_gamma 90.
_cell_volume 931.98
_cell_formula_units_Z 4
_space_group_name_H-M_alt 'P n m a'
_space_group_IT_number 62
loop_
_space_group_symop_id
_space_group_symop_operation_xyz
1 'x+1/2, y, -z+1/2'
2 'x, -y+1/2, z'
3 '-x+1/2, y+1/2, z+1/2'
4 '-x, -y, -z'
5 '-x+1/2, -y, z+1/2'
6 '-x, y+1/2, -z'
7 'x+1/2, -y+1/2, -z+1/2'
8 'x, y, z'
loop_
_atom_type_symbol
_atom_type_oxidation_number
Zn2+ 2
Mn2+ 2
Zn2+ 2
Mn2+ 2
Zn2+ 2
Mn2+ 2
V5+ 5
Mo6+ 6
V5+ 5
Mo6+ 6
O2- -2
loop_
_atom_site_label
_atom_site_type_symbol
_atom_site_symmetry_multiplicity
_atom_site_Wyckoff_symbol
_atom_site_fract_x
_atom_site_fract_y
_atom_site_fract_z
_atom_site_U_iso_or_equiv
_atom_site_occupancy
Zn1 Zn2+ 4 c 0.4153(15) 0.25 0.2504(4) 0.030(6) 0.535(8)
Mn1 Mn2+ 4 c 0.4153(15) 0.25 0.2504(4) 0.030(6) 0.215(8)
Zn2 Zn2+ 8 d 0.7519(5) 0.08112(23) 0.52767(18) 0.0180(15) 0.941(5)
Mn2 Mn2+ 8 d 0.7519(5) 0.08112(23) 0.52767(18) 0.0180(15) 0.059(5)
Zn3 Zn2+ 4 c 0.7454(27) 0.25 0.6901(8) 0.0121(98) 0.529(8)
Mn3 Mn2+ 4 c 0.7454(27) 0.25 0.6901(8) 0.0121(98) 0.471(8)
V1 V5+ 4 c 0.2223(12) 0.25 0.44383(32) 0.014(4) 0.481
Mo1 Mo6+ 4 c 0.2223(12) 0.25 0.44383(32) 0.014(4) 0.519(12)
V2 V5+ 8 d 0.7201(8) -0.02494(34) 0.34439(23) 0.0088(27) 0.499
Mo2 Mo6+ 8 d 0.7201(8) -0.02494(34) 0.34439(23) 0.0088(27) 0.501(7)
O1 O2- 4 c 0.1421(6) 0.25 0.35004(20) 0.0192 1.
O2 O2- 4 c -0.0570(7) 0.25 0.50730(20) 0.01692 1.
O3 O2- 8 d 0.4172(5) 0.11593(29) 0.46350(14) 0.01842 1.
O4 O2- 8 d 0.4354(5) -0.11316(23) 0.37228(14) 0.01746 1.
O5 O2- 8 d 0.9188(4) -0.12571(20) 0.28769(15) 0.02353 1.
O6 O2- 8 d 0.6495(4) 0.11085(21) 0.29663(15) 0.02039 1.
O7 O2- 8 d 0.9121(4) 0.00760(24) 0.42429(15) 0.01545 1.
loop_
_atom_site_aniso_label
_atom_site_aniso_type_symbol
_atom_site_aniso_U_11
_atom_site_aniso_U_22
_atom_site_aniso_U_33
_atom_site_aniso_U_12
_atom_site_aniso_U_13
_atom_site_aniso_U_23
O1 O2- 0.0206(29) 0.0128(27) 0.0242(26) 0. -0.0022(17) 0.
O2 O2- 0.0097(21) 0.0129(25) 0.0282(28) 0. 0.0114(19) 0.
O3 O2- 0.0123(16) 0.0211(21) 0.0218(19) 0.0005(16) -0.0024(15) 0.0009(14)
O4 O2- 0.0110(17) 0.0155(18) 0.0259(20) 0.0037(17) -0.0001(12) 0.0002(18)
O5 O2- 0.0155(14) 0.0266(17) 0.0285(19) 0.0060(16) -0.0047(15) 0.0037(15)
O6 O2- 0.0208(17) 0.0207(17) 0.0196(19) -0.0025(14) -0.0013(12) 0.0104(15)
O7 O2- 0.0150(15) 0.0192(15) 0.0122(18) 0.0022(13) -0.0034(14) 0.0022(13)
#End of TTdata_140453-ICSD
#
