(C) 2022 by FIZ Karlsruhe - Leibniz Institute for Information Infrastructure.  All rights reserved.
data_190440-ICSD
_database_code_ICSD 190440
_audit_creation_date 2014-08-01
_audit_update_record 2022-08-01
_chemical_name_common

;
Copper titanium aluminium iron vanadium arsenic molybdenum oxide
(4.4/0.3/0.3/2.4/5.8/0.1/0.1/24)
;
_chemical_formula_structural
'(Cu0.6 Ti0.3 Al0.26 Fe0.24) Cu2 (Fe2.2 Cu1.8) (V5.82 As0.12 Mo0.06) O24'
_chemical_formula_sum 'Al0.26 As0.12 Cu4.4 Fe2.44 Mo0.06 O24 Ti0.3 V5.82'
_chemical_name_structure_type Lyonsite#Li3Fe(MoO4)3
_chemical_name_mineral Lyonsite
_exptl_crystal_density_diffrn 3.66
_diffrn_ambient_temperature 296.
_citation_title

;
A new Cu-rich variety of lyonsite from fumarolic sublimates of the Tolbachik
volcano (Kamchatka, Russia) and its crystal structure
;
loop_
_citation_id
_citation_journal_full
_citation_year
_citation_journal_volume
_citation_page_first
_citation_page_last
_citation_journal_id_ASTM
primary 'Doklady Earth Sciences' 2013 448 112 116 DESOAP
loop_
_citation_author_citation_id
_citation_author_name
primary 'Pekov, I.V.'
primary 'Zubkova, N.V.'
primary 'Chernyshov, D.Yu.'
primary 'Zelenski, M.E.'
primary 'Yapaskurt, V.O.'
primary 'Pushcharovskii, D.Yu.'
_cell_length_a 5.1736(7)
_cell_length_b 10.8929(12)
_cell_length_c 18.220(2)
_cell_angle_alpha 90.
_cell_angle_beta 90.
_cell_angle_gamma 90.
_cell_volume 1026.8
_cell_formula_units_Z 2
_space_group_name_H-M_alt 'P n m a'
_space_group_IT_number 62
loop_
_space_group_symop_id
_space_group_symop_operation_xyz
1 'x+1/2, y, -z+1/2'
2 'x, -y+1/2, z'
3 '-x+1/2, y+1/2, z+1/2'
4 '-x, -y, -z'
5 '-x+1/2, -y, z+1/2'
6 '-x, y+1/2, -z'
7 'x+1/2, -y+1/2, -z+1/2'
8 'x, y, z'
loop_
_atom_type_symbol
_atom_type_oxidation_number
Cu2+ 2
Ti4+ 4
Al3+ 3
Fe3+ 3
Cu2+ 2
Fe3+ 3
Cu2+ 2
V5+ 5
As5+ 5
Mo6+ 6
V5+ 5
As5+ 5
Mo6+ 6
O2- -2
loop_
_atom_site_label
_atom_site_type_symbol
_atom_site_symmetry_multiplicity
_atom_site_Wyckoff_symbol
_atom_site_fract_x
_atom_site_fract_y
_atom_site_fract_z
_atom_site_U_iso_or_equiv
_atom_site_occupancy
Cu1 Cu2+ 4 c 0.9070(8) 0.75 0.75004(14) 0.0375(8) 0.3
Ti1 Ti4+ 4 c 0.9070(8) 0.75 0.75004(14) 0.0375(8) 0.15
Al1 Al3+ 4 c 0.9070(8) 0.75 0.75004(14) 0.0375(8) 0.13
Fe1 Fe3+ 4 c 0.9070(8) 0.75 0.75004(14) 0.0375(8) 0.12
Cu2 Cu2+ 4 c 0.2105(2) 0.25 0.82263(7) 0.0148(3) 1.
Fe2 Fe3+ 8 d 0.24742(16) 0.42399(8) 0.97301(5) 0.0134(3) 0.55
Cu3 Cu2+ 8 d 0.24742(16) 0.42399(8) 0.97301(5) 0.0134(3) 0.45
V1 V5+ 4 c 0.7690(3) 0.25 0.05731(9) 0.0145(4) 0.97
As1 As5+ 4 c 0.7690(3) 0.25 0.05731(9) 0.0145(4) 0.02
Mo1 Mo6+ 4 c 0.7690(3) 0.25 0.05731(9) 0.0145(4) 0.01
V2 V5+ 8 d 0.7214(2) 0.47104(10) 0.84423(6) 0.0130(3) 0.97
As2 As5+ 8 d 0.7214(2) 0.47104(10) 0.84423(6) 0.0130(3) 0.02
Mo2 Mo6+ 8 d 0.7214(2) 0.47104(10) 0.84423(6) 0.0130(3) 0.01
O1 O2- 8 d 0.6572(10) 0.6135(4) 0.7961(3) 0.0198(11) 1.
O2 O2- 8 d 0.4233(9) 0.3845(4) 0.8736(3) 0.0168(10) 1.
O3 O2- 4 c 0.0536(15) 0.25 0.9946(5) 0.0255(17) 1.
O4 O2- 8 d 0.5740(10) 0.3835(5) 0.0362(3) 0.0249(12) 1.
O5 O2- 8 d 0.9155(9) 0.5040(4) 0.9269(3) 0.0188(11) 1.
O6 O2- 4 c 0.6534(15) 0.75 0.6539(4) 0.0227(16) 1.
O7 O2- 8 d 0.9268(10) 0.3753(4) 0.7914(3) 0.0198(11) 1.
#End of TTdata_190440-ICSD
#
