(C) 2022 by FIZ Karlsruhe - Leibniz Institute for Information Infrastructure.  All rights reserved.
data_38817-ICSD
_database_code_ICSD 38817
_audit_creation_date 2022-08-01
_chemical_name_common 'Dilithium dizinc tris(molybdate)'
_chemical_formula_structural 'Li2 Zn2 (Mo O4)3'
_chemical_formula_sum 'Li2 Mo3 O12 Zn2'
_chemical_name_structure_type Lyonsite#Li3Fe(MoO4)3
_exptl_crystal_density_diffrn 4.38
_citation_title

;
Molybdenum-based NASICON Li$_2$M$_2$(MoO$_4$)$_3$ (M = Zn, Cu). Understanding
structural evolution and lithium storage mechanism
;
loop_
_citation_id
_citation_journal_full
_citation_year
_citation_journal_volume
_citation_page_first
_citation_page_last
_citation_journal_id_ASTM
primary 'Journal of Alloys and Compounds' 2022 890 '' '' JALCEU
loop_
_citation_author_citation_id
_citation_author_name
primary 'Zhang, Ke'
primary 'Kuang, Quan'
primary 'Wu, Jian'
primary 'Chen, Siyuan'
primary 'Wen, Ni'
primary 'Fan, Qinghua'
primary 'Dong, Youzhong'
primary 'Zhao, Yanming'
_cell_length_a 5.1130(3)
_cell_length_b 10.4920(7)
_cell_length_c 17.6228(8)
_cell_angle_alpha 90.
_cell_angle_beta 90.
_cell_angle_gamma 90.
_cell_volume 945.38
_cell_formula_units_Z 4
_space_group_name_H-M_alt 'P n m a'
_space_group_IT_number 62
loop_
_space_group_symop_id
_space_group_symop_operation_xyz
1 'x+1/2, y, -z+1/2'
2 'x, -y+1/2, z'
3 '-x+1/2, y+1/2, z+1/2'
4 '-x, -y, -z'
5 '-x+1/2, -y, z+1/2'
6 '-x, y+1/2, -z'
7 'x+1/2, -y+1/2, -z+1/2'
8 'x, y, z'
loop_
_atom_type_symbol
_atom_type_oxidation_number
Mo6+ 6
Zn2+ 2
Li1+ 1
Zn2+ 2
Li1+ 1
Zn2+ 2
Li1+ 1
O2- -2
loop_
_atom_site_label
_atom_site_type_symbol
_atom_site_symmetry_multiplicity
_atom_site_Wyckoff_symbol
_atom_site_fract_x
_atom_site_fract_y
_atom_site_fract_z
_atom_site_B_iso_or_equiv
_atom_site_occupancy
Mo1 Mo6+ 4 c 0.2231(5) 0.25 0.0563(6) . 1
Mo2 Mo6+ 8 d 0.2766(6) 0.0271(5) 0.8433(4) . 1
Zn1 Zn2+ 8 d 0.7509(2) 0.0793(7) 0.9705(1) . 0.66
Li1 Li1+ 8 d 0.7509(2) 0.0793(7) 0.9705(1) . 0.34
Zn2 Zn2+ 4 c 0.3900(6) 0.25 0.2486(6) . 0.47
Li2 Li1+ 4 c 0.3900(6) 0.25 0.2486(6) . 0.53
Zn3 Zn2+ 4 c 0.7579(0) 0.25 0.8019(5) . 0.21
Li3 Li1+ 4 c 0.7579(0) 0.25 0.8019(5) . 0.79
O1 O2- 8 d 0.5681(2) 0.1118(8) 0.8699(6) . 1
O2 O2- 4 c 0.1412(2) 0.25 0.1450(7) . 1
O3 O2- 8 d 0.4259(6) 0.1165(5) 0.0340(6) . 1
O4 O2- 4 c 0.9494(4) 0.25 -0.0043(0) . 1
O5 O2- 8 d 0.3539(5) -0.1082(1) 0.7964(8) . 1
O6 O2- 8 d 0.0811(2) -0.0082(5) 0.9275(4) . 1
O7 O2- 8 d 0.0766(0) 0.1200(6) 0.7879(7) . 1
#End of TTdata_38817-ICSD
#
