(C) 2022 by FIZ Karlsruhe - Leibniz Institute for Information Infrastructure.  All rights reserved.
data_281292-ICSD
_database_code_ICSD 281292
_audit_creation_date 2003-10-01
_audit_update_record 2008-02-01
_chemical_name_common 'Trilithium scandium tris(molybdate(VI))'
_chemical_formula_structural 'Li3 Sc (Mo O4)3'
_chemical_formula_sum 'Li3 Mo3 O12 Sc1'
_chemical_name_structure_type Lyonsite#Li3Fe(MoO4)3
_exptl_crystal_density_diffrn 3.77
_citation_title
'Li3 Sc (Mo O4)3: substitutional disorder on three (Li, Sc) sites'
loop_
_citation_id
_citation_journal_full
_citation_year
_citation_journal_volume
_citation_page_first
_citation_page_last
_citation_journal_id_ASTM
primary 'Acta Crystallographica, Section E: Structure Reports Online' 2003 59
i55 i58 ACSEBH
loop_
_citation_author_citation_id
_citation_author_name
primary 'Kolitsch, U.'
primary 'Tillmanns, E.'
_cell_length_a 5.130(1)
_cell_length_b 10.560(2)
_cell_length_c 17.745(4)
_cell_angle_alpha 90.
_cell_angle_beta 90.
_cell_angle_gamma 90.
_cell_volume 961.3
_cell_formula_units_Z 4
_space_group_name_H-M_alt 'P n m a'
_space_group_IT_number 62
loop_
_space_group_symop_id
_space_group_symop_operation_xyz
1 'x+1/2, y, -z+1/2'
2 'x, -y+1/2, z'
3 '-x+1/2, y+1/2, z+1/2'
4 '-x, -y, -z'
5 '-x+1/2, -y, z+1/2'
6 '-x, y+1/2, -z'
7 'x+1/2, -y+1/2, -z+1/2'
8 'x, y, z'
loop_
_atom_type_symbol
_atom_type_oxidation_number
Mo6+ 6
Li1+ 1
Sc3+ 3
Li1+ 1
Sc3+ 3
Li1+ 1
Sc3+ 3
O2- -2
loop_
_atom_site_label
_atom_site_type_symbol
_atom_site_symmetry_multiplicity
_atom_site_Wyckoff_symbol
_atom_site_fract_x
_atom_site_fract_y
_atom_site_fract_z
_atom_site_U_iso_or_equiv
_atom_site_occupancy
Mo1 Mo6+ 8 d 0.27559(5) 0.52755(2) 0.156515(13) 0.01468(9) 1.
Mo2 Mo6+ 4 c 0.77812(6) 0.25 0.057110(18) 0.01320(10) 1.
Li1 Li1+ 4 c 0.1048(5) 0.25 0.25027(10) 0.0289(4) 0.58
Sc1 Sc3+ 4 c 0.1048(5) 0.25 0.25027(10) 0.0289(4) 0.42
Li2 Li1+ 8 d 0.7547(3) 0.57420(15) 0.02731(9) 0.0129(4) 0.751(3)
Sc2 Sc3+ 8 d 0.7547(3) 0.57420(15) 0.02731(9) 0.0129(4) 0.249(3)
Li3 Li1+ 4 c 0.2446(9) 0.75 0.3018(3) 0.0237(13) 0.925(3)
Sc3 Sc3+ 4 c 0.2446(9) 0.75 0.3018(3) 0.0237(13) 0.075(3)
O1 O2- 4 c 0.8588(6) 0.25 0.15432(16) 0.0201(6) 1.
O2 O2- 4 c 0.0531(6) 0.25 -.00495(16) 0.0194(6) 1.
O3 O2- 8 d 0.5831(4) 0.1167(2) 0.03722(11) 0.0201(4) 1.
O4 O2- 8 d 0.0838(4) 0.4902(2) 0.07587(11) 0.0199(4) 1.
O5 O2- 8 d 0.0797(4) 0.6233(2) 0.21271(12) 0.0240(5) 1.
O6 O2- 8 d 0.3528(4) 0.38437(19) 0.20513(11) 0.0195(4) 1.
O7 O2- 8 d 0.5554(4) 0.61262(19) 0.12713(12) 0.0208(4) 1.
loop_
_atom_site_aniso_label
_atom_site_aniso_type_symbol
_atom_site_aniso_U_11
_atom_site_aniso_U_22
_atom_site_aniso_U_33
_atom_site_aniso_U_12
_atom_site_aniso_U_13
_atom_site_aniso_U_23
Mo1 Mo6+ 0.01428(14) 0.01484(14) 0.01493(14) 0.00046(8) -0.00045(8) 0.00130(8)
Mo2 Mo6+ 0.01243(16) 0.01373(17) 0.01345(16) 0 0.00018(11) 0
Li1 Li1+ 0.0522(12) 0.0172(7) 0.0172(8) 0 0.0012(8) 0
Sc1 Sc3+ 0.0522(12) 0.0172(7) 0.0172(8) 0 0.0012(8) 0
Li2 Li1+ 0.0112(7) 0.0150(8) 0.0125(8) 0.0003(5) 0.0007(5) 0.0022(6)
Sc2 Sc3+ 0.0112(7) 0.0150(8) 0.0125(8) 0.0003(5) 0.0007(5) 0.0022(6)
Li3 Li1+ 0.017(2) 0.023(3) 0.031(3) 0 0.0049(18) 0
Sc3 Sc3+ 0.017(2) 0.023(3) 0.031(3) 0 0.0049(18) 0
O1 O2- 0.0230(15) 0.0185(14) 0.0189(14) 0 -0.0035(11) 0
O2 O2- 0.0171(14) 0.0184(13) 0.0227(14) 0 0.0026(11) 0
O3 O2- 0.018(1) 0.0219(10) 0.0203(10) -0.0021(8) -0.0015(8) -0.0009(8)
O4 O2- 0.0167(10) 0.024(1) 0.0190(9) 0.0011(8) -0.0006(8) 0.0014(8)
O5 O2- 0.0226(11) 0.0256(11) 0.0237(10) 0.0031(9) 0.0005(8) -0.0030(9)
O6 O2- 0.0208(10) 0.0196(10) 0.0183(9) 0.0005(8) -0.0006(8) 0.0019(8)
O7 O2- 0.0203(10) 0.0209(10) 0.021(1) -0.0030(8) 0.0007(8) -0.0005(8)
#End of TTdata_281292-ICSD
#
