(C) 2022 by FIZ Karlsruhe - Leibniz Institute for Information Infrastructure.  All rights reserved.
data_38819-ICSD
_database_code_ICSD 38819
_audit_creation_date 2022-08-01
_chemical_name_common 'Dilithium dicopper tris(molybdate)'
_chemical_formula_structural 'Li2 Cu2 (Mo O4)3'
_chemical_formula_sum 'Cu2 Li2 Mo3 O12'
_chemical_name_structure_type Lyonsite#Li3Fe(MoO4)3
_exptl_crystal_density_diffrn 4.45
_citation_title

;
Molybdenum-based NASICON Li$_2$M$_2$(MoO$_4$)$_3$ (M = Zn, Cu). Understanding
structural evolution and lithium storage mechanism
;
loop_
_citation_id
_citation_journal_full
_citation_year
_citation_journal_volume
_citation_page_first
_citation_page_last
_citation_journal_id_ASTM
primary 'Journal of Alloys and Compounds' 2022 890 '' '' JALCEU
loop_
_citation_author_citation_id
_citation_author_name
primary 'Zhang, Ke'
primary 'Kuang, Quan'
primary 'Wu, Jian'
primary 'Chen, Siyuan'
primary 'Wen, Ni'
primary 'Fan, Qinghua'
primary 'Dong, Youzhong'
primary 'Zhao, Yanming'
_cell_length_a 5.0524(9)
_cell_length_b 10.4762(7)
_cell_length_c 17.5192(2)
_cell_angle_alpha 90.
_cell_angle_beta 90.
_cell_angle_gamma 90.
_cell_volume 927.29
_cell_formula_units_Z 4
_space_group_name_H-M_alt 'P n m a'
_space_group_IT_number 62
loop_
_space_group_symop_id
_space_group_symop_operation_xyz
1 'x+1/2, y, -z+1/2'
2 'x, -y+1/2, z'
3 '-x+1/2, y+1/2, z+1/2'
4 '-x, -y, -z'
5 '-x+1/2, -y, z+1/2'
6 '-x, y+1/2, -z'
7 'x+1/2, -y+1/2, -z+1/2'
8 'x, y, z'
loop_
_atom_type_symbol
_atom_type_oxidation_number
Mo6+ 6
Cu1+ 1
Li1+ 1
Cu1+ 1
Li1+ 1
Cu1+ 1
Li1+ 1
O2- -2
loop_
_atom_site_label
_atom_site_type_symbol
_atom_site_symmetry_multiplicity
_atom_site_Wyckoff_symbol
_atom_site_fract_x
_atom_site_fract_y
_atom_site_fract_z
_atom_site_B_iso_or_equiv
_atom_site_occupancy
Mo1 Mo6+ 4 c 0.2206(8) 0.25 0.0541(2) . 1
Mo2 Mo6+ 8 d 0.2811(9) 0.0284(9) 0.8456(8) . 1
Cu1 Cu1+ 8 d 0.7517(1) 0.0725(1) 0.9748(2) . 0.66
Li1 Li1+ 8 d 0.7517(1) 0.0725(1) 0.9748(2) . 0.34
Cu2 Cu1+ 4 c 0.3825(5) 0.25 0.2478(8) . 0.47
Li2 Li1+ 4 c 0.3825(5) 0.25 0.2478(8) . 0.53
Cu3 Cu1+ 4 c 0.7910(6) 0.25 0.8205(9) . 0.21
Li3 Li1+ 4 c 0.7910(6) 0.25 0.8205(9) . 0.79
O1 O2- 8 d 0.6336(5) 0.1644(7) 0.8422(8) . 1
O2 O2- 4 c 0.1090(8) 0.25 0.1409(6) . 1
O3 O2- 8 d 0.4359(6) 0.1155(1) 0.0377(3) . 1
O4 O2- 4 c 0.9553(2) 0.25 -0.0086(1) . 1
O5 O2- 8 d 0.3501(2) -0.0866(9) 0.7963(2) . 1
O6 O2- 8 d 0.0708(9) -0.0047(1) 0.9205(7) . 1
O7 O2- 8 d 0.0774(8) 0.1304(4) 0.7853(5) . 1
#End of TTdata_38819-ICSD
#
