(C) 2022 by FIZ Karlsruhe - Leibniz Institute for Information Infrastructure.  All rights reserved.
data_38823-ICSD
_database_code_ICSD 38823
_audit_creation_date 2022-08-01
_chemical_name_common 'Dilithium zinc copper tris(molybdate)'
_chemical_formula_structural 'Li2 Zn0.5 Cu1.5 (Mo O4)3'
_chemical_formula_sum 'Cu1.5 Li2 Mo3 O12 Zn0.5'
_chemical_name_structure_type Lyonsite#Li3Fe(MoO4)3
_exptl_crystal_density_diffrn 4.42
_citation_title

;
Molybdenum-based NASICON Li$_2$M$_2$(MoO$_4$)$_3$ (M = Zn, Cu). Understanding
structural evolution and lithium storage mechanism
;
loop_
_citation_id
_citation_journal_full
_citation_year
_citation_journal_volume
_citation_page_first
_citation_page_last
_citation_journal_id_ASTM
primary 'Journal of Alloys and Compounds' 2022 890 '' '' JALCEU
loop_
_citation_author_citation_id
_citation_author_name
primary 'Zhang, Ke'
primary 'Kuang, Quan'
primary 'Wu, Jian'
primary 'Chen, Siyuan'
primary 'Wen, Ni'
primary 'Fan, Qinghua'
primary 'Dong, Youzhong'
primary 'Zhao, Yanming'
_cell_length_a 5.0697(7)
_cell_length_b 10.4738(8)
_cell_length_c 17.5917(1)
_cell_angle_alpha 90.
_cell_angle_beta 90.
_cell_angle_gamma 90.
_cell_volume 934.1
_cell_formula_units_Z 4
_space_group_name_H-M_alt 'P n m a'
_space_group_IT_number 62
loop_
_space_group_symop_id
_space_group_symop_operation_xyz
1 'x+1/2, y, -z+1/2'
2 'x, -y+1/2, z'
3 '-x+1/2, y+1/2, z+1/2'
4 '-x, -y, -z'
5 '-x+1/2, -y, z+1/2'
6 '-x, y+1/2, -z'
7 'x+1/2, -y+1/2, -z+1/2'
8 'x, y, z'
loop_
_atom_type_symbol
_atom_type_oxidation_number
Mo6+ 6
Cu2+ 2
Li1+ 1
Zn2+ 2
Cu2+ 2
Li1+ 1
Zn2+ 2
Li1+ 1
O2- -2
loop_
_atom_site_label
_atom_site_type_symbol
_atom_site_symmetry_multiplicity
_atom_site_Wyckoff_symbol
_atom_site_fract_x
_atom_site_fract_y
_atom_site_fract_z
_atom_site_B_iso_or_equiv
_atom_site_occupancy
Mo1 Mo6+ 4 c 0.2159(5) 0.25 0.0555(3) . 1
Mo2 Mo6+ 8 d 0.2752(0) 0.0275(3) 0.8448(8) . 1
Cu1 Cu2+ 8 d 0.7485(6) 0.0780(4) 0.9739(2) . 0.66
Li1 Li1+ 8 d 0.7485(6) 0.0780(4) 0.9739(2) . 0.34
Zn1 Zn2+ 4 c 0.3873(3) 0.25 0.2479(0) . 0.29
Cu2 Cu2+ 4 c 0.3873(3) 0.25 0.2479(0) . 0.18
Li2 Li1+ 4 c 0.3873(3) 0.25 0.2479(0) . 0.53
Zn2 Zn2+ 4 c 0.7819(6) 0.25 0.8193(0) . 0.21
Li3 Li1+ 4 c 0.7819(6) 0.25 0.8193(0) . 0.79
O1 O2- 8 d 0.5482(6) 0.1197(4) 0.8641(2) . 1
O2 O2- 4 c 0.1540(2) 0.25 0.1562(3) . 1
O3 O2- 8 d 0.4427(1) 0.1246(3) 0.0396(0) . 1
O4 O2- 4 c 0.9261(7) 0.25 -0.0068(1) . 1
O5 O2- 8 d 0.3670(6) -0.0957(3) 0.7971(4) . 1
O6 O2- 8 d 0.0413(3) -0.0048(3) 0.9157(5) . 1
O7 O2- 8 d 0.0412(7) 0.1453(1) 0.7891(6) . 1
#End of TTdata_38823-ICSD
#
