(C) 2022 by FIZ Karlsruhe - Leibniz Institute for Information Infrastructure.  All rights reserved.
data_241136-ICSD
_database_code_ICSD 241136
_audit_creation_date 2008-08-01
_chemical_name_common 'Trilithium gallium trimolybdate(VI)'
_chemical_formula_structural 'Li (Li2 Ga) (Mo O4)3'
_chemical_formula_sum 'Ga1 Li3 Mo3 O12'
_chemical_name_structure_type Lyonsite#Li3Fe(MoO4)3
_exptl_crystal_density_diffrn 4.14
_diffrn_ambient_temperature 293.
_citation_title 'Li Fe (Mo O4)2, Li Ga (Mo  O4)2 and Li3 Ga (Mo O4)3'
loop_
_citation_id
_citation_journal_full
_citation_year
_citation_journal_volume
_citation_page_first
_citation_page_last
_citation_journal_id_ASTM
primary 'Acta Crystallographica, Section C: Crystal Structure Communications'
2008 64 i1 i4 ACSCEE
loop_
_citation_author_citation_id
_citation_author_name
primary 'van der Lee, A.'
primary 'Beaurain, M.'
primary 'Armand, P.'
_cell_length_a 5.04022(13)
_cell_length_b 10.4054(3)
_cell_length_c 17.4541(5)
_cell_angle_alpha 90
_cell_angle_beta 90
_cell_angle_gamma 90
_cell_volume 915.39
_cell_formula_units_Z 4
_space_group_name_H-M_alt 'P n m a'
_space_group_IT_number 62
loop_
_space_group_symop_id
_space_group_symop_operation_xyz
1 'x+1/2, y, -z+1/2'
2 'x, -y+1/2, z'
3 '-x+1/2, y+1/2, z+1/2'
4 '-x, -y, -z'
5 '-x+1/2, -y, z+1/2'
6 '-x, y+1/2, -z'
7 'x+1/2, -y+1/2, -z+1/2'
8 'x, y, z'
loop_
_atom_type_symbol
_atom_type_oxidation_number
Mo6+ 6
Ga3+ 3
Li1+ 1
Ga3+ 3
Li1+ 1
O2- -2
loop_
_atom_site_label
_atom_site_type_symbol
_atom_site_symmetry_multiplicity
_atom_site_Wyckoff_symbol
_atom_site_fract_x
_atom_site_fract_y
_atom_site_fract_z
_atom_site_U_iso_or_equiv
_atom_site_occupancy
Mo1 Mo6+ 4 c 0.78007(12) 0.75 0.55723(4) 0.0066 1.
Mo2 Mo6+ 8 d 0.77953(10) 0.47532(5) 0.84394(3) 0.0078 1.
Ga1 Ga3+ 8 d 0.24238(12) 0.92817(12) 0.47388(9) 0.0056 0.2909(17)
Li1 Li1+ 8 d 0.24238(12) 0.92817(12) 0.47388(9) 0.0056 0.7091(17)
Ga2 Ga3+ 4 c 1.10960(13) 0.75 0.75024(10) 0.012 0.421(3)
Li2 Li1+ 4 c 1.10960(13) 0.75 0.75024(10) 0.012 0.579(3)
Li3 Li1+ 4 c 0.74424(18) 0.25 0.69454(18) 0.0171 1.
O1 O2- 4 c 0.86190(18) 0.75 0.65560(17) 0.0143 1.
O2 O2- 4 c 1.05797(18) 0.75 0.49290(17) 0.0155 1.
O3 O2- 8 d 0.57942(18) 0.88452(17) 0.53714(16) 0.0145 1.
O4 O2- 8 d 0.58087(18) 0.37806(17) 0.78722(16) 0.0173 1.
O5 O2- 8 d 0.85878(18) 0.61997(17) 0.79391(16) 0.0138 1.
O6 O2- 8 d 0.58027(18) 0.51281(17) 0.92573(16) 0.0142 1.
O7 O2- 8 d 1.06124(18) 0.38821(17) 0.87424(16) 0.0158 1.
loop_
_atom_site_aniso_label
_atom_site_aniso_type_symbol
_atom_site_aniso_U_11
_atom_site_aniso_U_22
_atom_site_aniso_U_33
_atom_site_aniso_U_12
_atom_site_aniso_U_13
_atom_site_aniso_U_23
Mo1 Mo6+ 0.00644(12) 0.00787(16) 0.00563(16) 0. -0.00007(15) 0.
Mo2 Mo6+ 0.00745(11) 0.00772(15) 0.00818(15) -0.00062(13) 0.00064(13)
0.00190(13)
Ga1 Ga3+ 0.00419(9) 0.00752(13) 0.00508(13) -0.00015(13) 0.00030(13) 0.00112(13)
Li1 Li1+ 0.00419(9) 0.00752(13) 0.00508(13) 0.00013(13) 0.00030(13) -0.00113(13)
Ga2 Ga3+ 0.02661(9) 0.00408(13) 0.00537(13) 0. 0.00453(13) 0.
Li2 Li1+ 0.02661(9) 0.00408(13) 0.00537(13) 0. 0.00453(13) 0.
Li3 Li1+ 0.00965(13) 0.01213(18) 0.02948(18) 0. -0.00329(18) 0.
O1 O2- 0.01759(13) 0.01642(18) 0.00883(18) 0. -0.00166(18) 0.
O2 O2- 0.01136(13) 0.02193(18) 0.01315(18) 0. 0.00162(18) 0.
O3 O2- 0.01402(13) 0.01610(18) 0.01336(18) 0.00151(18) -0.00269(18) 0.00076(18)
O4 O2- 0.01445(13) 0.01998(18) 0.01753(18) -0.00543(18) -0.00075(18)
-0.00498(18)
O5 O2- 0.01934(13) 0.01011(18) 0.01209(18) 0.00097(18) 0.00020(18) 0.00238(18)
O6 O2- 0.01354(13) 0.01809(18) 0.01101(18) -0.00023(18) -0.00006(18) 0.00092(18)
O7 O2- 0.01706(13) 0.01388(18) 0.01649(18) 0.00381(18) 0.00332(18) 0.00143(18)
#End of TTdata_241136-ICSD
#
