(C) 2022 by FIZ Karlsruhe - Leibniz Institute for Information Infrastructure.  All rights reserved.
data_51336-ICSD
_database_code_ICSD 51336
_audit_creation_date 2002-10-01
_audit_update_record 2012-08-01
_chemical_name_common 'Copper iron vanadate (4/3.33/6) - alpha'
_chemical_formula_structural 'Cu4 Fe3.3333 (V O4)6'
_chemical_formula_sum 'Cu4 Fe3.3333 O24 V6'
_chemical_name_structure_type Lyonsite#Li3Fe(MoO4)3
_exptl_crystal_density_diffrn 4.32
_diffrn_ambient_temperature 943.
_citation_title

;
Phase formation in Cu3+1.5x R4-x (V O4)6 (R= Fe and Cr) systems: crystal
structure of Cu2.5 Fe4.333 (V O4)6, Cu4 Fe3.333 (V O4)6 and Cu4.05 Cr3.3 (V
O4)6
;
loop_
_citation_id
_citation_journal_full
_citation_year
_citation_journal_volume
_citation_page_first
_citation_page_last
_citation_journal_id_ASTM
primary 'Journal of Solid State Chemistry' 2001 156 339 348 JSSCBI
loop_
_citation_author_citation_id
_citation_author_name
primary 'Belik, A.A.'
primary 'Malakho, A.P.'
primary 'Pokholok, K.V.'
primary 'Lazoryak, B.I.'
_cell_length_a 4.91029(7)
_cell_length_b 10.2867(1)
_cell_length_c 17.21349(20)
_cell_angle_alpha 90.
_cell_angle_beta 90.
_cell_angle_gamma 90.
_cell_volume 869.47
_cell_formula_units_Z 2
_space_group_name_H-M_alt 'P n m a'
_space_group_IT_number 62
loop_
_space_group_symop_id
_space_group_symop_operation_xyz
1 'x+1/2, y, -z+1/2'
2 'x, -y+1/2, z'
3 '-x+1/2, y+1/2, z+1/2'
4 '-x, -y, -z'
5 '-x+1/2, -y, z+1/2'
6 '-x, y+1/2, -z'
7 'x+1/2, -y+1/2, -z+1/2'
8 'x, y, z'
loop_
_atom_type_symbol
_atom_type_oxidation_number
Cu2+ 2
Fe3+ 3
Cu2+ 2
V5+ 5
O2- -2
loop_
_atom_site_label
_atom_site_type_symbol
_atom_site_symmetry_multiplicity
_atom_site_Wyckoff_symbol
_atom_site_fract_x
_atom_site_fract_y
_atom_site_fract_z
_atom_site_B_iso_or_equiv
_atom_site_occupancy
Cu1 Cu2+ 4 c 0.207(1) 0.25 0.8219(2) 1.1(1) 1.
Cu2 Cu2+ 8 d 0.2450(6) 0.4239(2) 0.9722(1) 0.35(7) 0.167
Fe1 Fe3+ 8 d 0.2450(6) 0.4239(2) 0.9722(1) 0.35(7) 0.833
Cu3 Cu2+ 4 c 0.909(1) 0.75 0.7484(3) 2.4(2) 0.667
V1 V5+ 4 c -.230(1) 0.25 0.0576(2) 0.9(1) 1.
V2 V5+ 8 d 0.7235(9) 0.4719(2) 0.8443(1) 0.93(9) 1.
O1 O2- 8 d 0.664(2) 0.6173(7) 0.7946(5) 1.7(3) 1.
O2 O2- 8 d 0.427(2) 0.3868(9) 0.8711(5) 0.1(3) 1.
O3 O2- 4 c 0.057(3) 0.25 0.9951(7) 0.1(4) 1.
O4 O2- 8 d 0.563(2) 0.3862(9) 0.0313(6) 2.0(3) 1.
O5 O2- 8 d 0.922(2) 0.503(1) 0.9287(6) 1.8(3) 1.
O6 O2- 4 c 0.653(3) 0.75 0.6554(6) 0.2(4) 1.
O7 O2- 8 d -.075(2) 0.3741(8) 0.7927(5) 1.1(3) 1.
#End of TTdata_51336-ICSD
#
