(C) 2022 by FIZ Karlsruhe - Leibniz Institute for Information Infrastructure.  All rights reserved.
data_416278-ICSD
_database_code_ICSD 416278
_audit_creation_date 2007-08-01
_chemical_name_common 'Lithium hafnium(IV) trimolybdate'
_chemical_formula_structural 'Li2.82 Hf0.795 Mo3 O12'
_chemical_formula_sum 'Hf0.795 Li2.82 Mo3 O12'
_chemical_name_structure_type Lyonsite#Li3Fe(MoO4)3
_exptl_crystal_density_diffrn 4.42
_citation_title 'The adaptable lyonsite structure'
loop_
_citation_id
_citation_journal_full
_citation_year
_citation_journal_volume
_citation_page_first
_citation_page_last
_citation_journal_id_ASTM
primary 'Chemistry - A European Journal' 2006 12 5944 5953 CEUJED
loop_
_citation_author_citation_id
_citation_author_name
primary 'Smit, J.P.'
primary 'Stair, P.C.'
primary 'Poeppelmeier, K.R.'
_cell_length_a 5.0643(4)
_cell_length_b 10.6517(8)
_cell_length_c 17.8559(13)
_cell_angle_alpha 90.
_cell_angle_beta 90.
_cell_angle_gamma 90.
_cell_volume 963.21
_cell_formula_units_Z 4
_space_group_name_H-M_alt 'P n m a'
_space_group_IT_number 62
loop_
_space_group_symop_id
_space_group_symop_operation_xyz
1 'x+1/2, y, -z+1/2'
2 'x, -y+1/2, z'
3 '-x+1/2, y+1/2, z+1/2'
4 '-x, -y, -z'
5 '-x+1/2, -y, z+1/2'
6 '-x, y+1/2, -z'
7 'x+1/2, -y+1/2, -z+1/2'
8 'x, y, z'
loop_
_atom_type_symbol
_atom_type_oxidation_number
Mo6+ 6
Hf4+ 4
Li1+ 1
Hf4+ 4
Li1+ 1
O2- -2
loop_
_atom_site_label
_atom_site_type_symbol
_atom_site_symmetry_multiplicity
_atom_site_Wyckoff_symbol
_atom_site_fract_x
_atom_site_fract_y
_atom_site_fract_z
_atom_site_U_iso_or_equiv
_atom_site_occupancy
Mo1 Mo6+ 4 c 0.77833(5) 0.25 0.555959(15) 0.00819(7) 1
Mo2 Mo6+ 8 d 0.22663(4) 0.03053(2) 0.156111(11) 0.01069(7) 1
Hf1 Hf4+ 8 d 0.24449(10) 0.07598(5) 0.47287(3) 0.00826(19) 0.1478(6)
Li1 Li1+ 8 d 0.24449(10) 0.07598(5) 0.47287(3) 0.00826(19) 0.8522(6)
Hf2 Hf4+ 4 c 0.11488(6) 0.25 0.750683(16) 0.01340(8) 0.5
Li2 Li1+ 4 c 0.11488(6) 0.25 0.750683(16) 0.01340(8) 0.11
Li3 Li1+ 4 c 0.2587(11) 0.25 0.3027(3) 0.0160(12) 1
O1 O2- 8 d 0.4253(3) 0.12399(18) 0.21239(10) 0.0185(4) 1
O2 O2- 8 d 0.1399(3) 0.61260(15) 0.20427(9) 0.0134(3) 1
O3 O2- 8 d 0.0823(3) 0.00773(17) 0.57610(9) 0.0150(4) 1
O4 O2- 8 d 0.4467(3) 0.11544(16) 0.37331(9) 0.0141(3) 1
O5 O2- 4 c 0.0523(5) 0.25 0.49404(13) 0.0117(5) 1
O6 O2- 8 d 0.5813(3) 0.11794(16) 0.53678(9) 0.0132(3) 1
O7 O2- 4 c 0.3668(5) 0.25 0.84671(13) 0.0145(5) 1
loop_
_atom_site_aniso_label
_atom_site_aniso_type_symbol
_atom_site_aniso_U_11
_atom_site_aniso_U_22
_atom_site_aniso_U_33
_atom_site_aniso_U_12
_atom_site_aniso_U_13
_atom_site_aniso_U_23
Mo1 Mo6+ 0.00696(13) 0.01054(14) 0.00708(13) 0. 0.00053(9) 0.
Mo2 Mo6+ 0.00884(11) 0.01329(11) 0.00993(11) -0.00198(7) -0.00059(7) 0.00259(7)
Hf1 Hf4+ 0.0063(3) 0.0104(3) 0.0081(3) -0.0005(2) 0.00051(18) -0.0021(2)
Li1 Li1+ 0.0063(3) 0.0104(3) 0.0081(3) -0.0005(2) 0.00051(18) -0.0021(2)
Hf2 Hf4+ 0.02671(17) 0.00797(13) 0.00552(12) 0. 0.00020(11) 0.
Li2 Li1+ 0.02671(17) 0.00797(13) 0.00552(12) 0. 0.00020(11) 0.
Li3 Li1+ 0.008(3) 0.026(3) 0.014(3) 0. -0.003(2) 0.
O1 O2- 0.0130(9) 0.0266(10) 0.0160(9) -0.0048(8) 0.0007(7) -0.0029(8)
O2 O2- 0.0167(8) 0.0131(8) 0.0106(8) -0.0020(7) 0.0015(6) -0.0010(6)
O3 O2- 0.0105(8) 0.0213(9) 0.0130(8) -0.0036(7) 0.0007(6) -0.0047(7)
O4 O2- 0.0164(8) 0.0136(9) 0.0123(8) 0.0005(7) 0.0016(6) -0.0006(7)
O5 O2- 0.0096(11) 0.0129(11) 0.0127(11) 0. 0.0005(9) 0.
O6 O2- 0.0100(8) 0.0177(8) 0.0119(8) -0.0018(7) 0.0004(6) -0.0009(7)
O7 O2- 0.0231(13) 0.0111(12) 0.0093(11) 0. 0.0018(9) 0.
#End of TTdata_416278-ICSD
#
