(C) 2022 by FIZ Karlsruhe - Leibniz Institute for Information Infrastructure.  All rights reserved.
data_246758-ICSD
_database_code_ICSD 246758
_audit_creation_date 2010-02-01
_chemical_name_common 'Lithium zinc molybdate(VI) (1.58/2.21/3)'
_chemical_formula_structural 'Li1.58 Zn2.21 (Mo O4)3'
_chemical_formula_sum 'Li1.58 Mo3 O12 Zn2.21'
_chemical_name_structure_type Lyonsite#Li3Fe(MoO4)3
_exptl_crystal_density_diffrn 4.45
_citation_title

;
Revised phase diagram of Li2 Mo O4 - Zn Mo O4 system, crystal structure and
crystal growth of lithium zinc molybdate
;
loop_
_citation_id
_citation_journal_full
_citation_year
_citation_journal_volume
_citation_page_first
_citation_page_last
_citation_journal_id_ASTM
primary 'Journal of Solid State Chemistry' 2009 182 1935 1943 JSSCBI
loop_
_citation_author_citation_id
_citation_author_name
primary 'Solodovnikov, S.F.'
primary 'Solodovnikova, Z.A.'
primary 'Zolotova, E.S.'
primary 'Yudanova, L.I.'
primary 'Kardash, T.Yu.'
primary 'Pavlyuk, A.A.'
primary Nadolinny,V.A.
_cell_length_a 5.0819(1)
_cell_length_b 10.5387(2)
_cell_length_c 17.7077(3)
_cell_angle_alpha 90.
_cell_angle_beta 90.
_cell_angle_gamma 90.
_cell_volume 948.36
_cell_formula_units_Z 4
_space_group_name_H-M_alt 'P n m a'
_space_group_IT_number 62
loop_
_space_group_symop_id
_space_group_symop_operation_xyz
1 'x+1/2, y, -z+1/2'
2 'x, -y+1/2, z'
3 '-x+1/2, y+1/2, z+1/2'
4 '-x, -y, -z'
5 '-x+1/2, -y, z+1/2'
6 '-x, y+1/2, -z'
7 'x+1/2, -y+1/2, -z+1/2'
8 'x, y, z'
loop_
_atom_type_symbol
_atom_type_oxidation_number
Mo6+ 6
Li1+ 1
Zn2+ 2
Li1+ 1
Zn2+ 2
Li1+ 1
Zn2+ 2
O2- -2
loop_
_atom_site_label
_atom_site_type_symbol
_atom_site_symmetry_multiplicity
_atom_site_Wyckoff_symbol
_atom_site_fract_x
_atom_site_fract_y
_atom_site_fract_z
_atom_site_U_iso_or_equiv
_atom_site_occupancy
Mo1 Mo6+ 4 c 0.27779(4) 0.25 0.44371(1) 0.00861(4) 1.
Mo2 Mo6+ 8 d 0.77637(3) 0.52729(1) 0.34373(1) 0.00968(4) 1.
Li1 Li1+ 4 c 0.2436(2) 0.75 0.30235(7) 0.0138(3) 0.813(2)
Zn1 Zn2+ 4 c 0.2436(2) 0.75 0.30235(7) 0.0138(3) 0.187(2)
Li2 Li1+ 8 d 0.2548(5) 0.57872(3) 0.47098(2) 0.01102(8) 0.275(1)
Zn2 Zn2+ 8 d 0.2548(5) 0.57872(3) 0.47098(2) 0.01102(8) 0.725(1)
Li3 Li1+ 4 c 0.6072(2) 0.25 0.24909(4) 0.0345(3) 0.223(5)
Zn4 Zn2+ 4 c 0.6072(2) 0.25 0.24909(4) 0.0345(3) 0.570(2)
O1 O2- 4 c 0.3627(4) 0.25 0.34832(10) 0.0152(3) 1.
O2 O2- 4 c 0.5553(4) 0.25 0.50738(10) 0.0130(3) 1.
O3 O2- 8 d 0.0794(3) 0.11606(13) 0.46290(7) 0.0134(2) 1.
O4 O2- 8 d 0.5820(3) 0.48931(12) 0.42508(7) 0.0135(2) 1.
O5 O2- 8 d 0.5773(3) 0.62357(14) 0.28720(8) 0.0178(3) 1.
O6 O2- 8 d 0.8565(3) 0.38629(13) 0.29584(7) 0.0156(2) 1.
O7 O2- 8 d 1.0599(3) 0.61397(13) 0.37298(7) 0.0145(2) 1.
#End of TTdata_246758-ICSD
#
