(C) 2022 by FIZ Karlsruhe - Leibniz Institute for Information Infrastructure.  All rights reserved.
data_245933-ICSD
_database_code_ICSD 245933
_audit_creation_date 2009-02-01
_chemical_name_common 'Lithium titanium molybdate(VI) (3/0.75/3)'
_chemical_formula_structural 'Li3 Ti0.75 (Mo O4)3'
_chemical_formula_sum 'Li3 Mo3 O12 Ti0.75'
_chemical_name_structure_type Lyonsite#Li3Fe(MoO4)3
_chemical_name_mineral Lyonsite
_exptl_crystal_density_diffrn 3.85
_citation_title 'Li3 Ti0.75 (Mo O4)3: A lyonsite-type oxide'
loop_
_citation_id
_citation_journal_full
_citation_year
_citation_journal_volume
_citation_page_first
_citation_page_last
_citation_journal_id_ASTM
primary 'European Journal of Inorganic Chemistry' 2008 2008 396 400 EJICFO
loop_
_citation_author_citation_id
_citation_author_name
primary 'Smit, J.P.'
primary 'McDonald, T.M.'
primary 'Poeppelmeier, K.R.'
_cell_length_a 5.0467(12)
_cell_length_b 10.454(3)
_cell_length_c 17.538(4)
_cell_angle_alpha 90.
_cell_angle_beta 90.
_cell_angle_gamma 90.
_cell_volume 925.27
_cell_formula_units_Z 4
_space_group_name_H-M_alt 'P n m a'
_space_group_IT_number 62
loop_
_space_group_symop_id
_space_group_symop_operation_xyz
1 'x+1/2, y, -z+1/2'
2 'x, -y+1/2, z'
3 '-x+1/2, y+1/2, z+1/2'
4 '-x, -y, -z'
5 '-x+1/2, -y, z+1/2'
6 '-x, y+1/2, -z'
7 'x+1/2, -y+1/2, -z+1/2'
8 'x, y, z'
loop_
_atom_type_symbol
_atom_type_oxidation_number
Mo6+ 6
Ti4+ 4
Li1+ 1
Ti4+ 4
Li1+ 1
O2- -2
loop_
_atom_site_label
_atom_site_type_symbol
_atom_site_symmetry_multiplicity
_atom_site_Wyckoff_symbol
_atom_site_fract_x
_atom_site_fract_y
_atom_site_fract_z
_atom_site_U_iso_or_equiv
_atom_site_occupancy
Mo1 Mo6+ 4 c 0.22039(12) 0.25 0.44220(4) 0.00744(19) 1.
Mo2 Mo6+ 8 d 0.72419(9) -0.02668(5) 0.34353(3) 0.00901(18) 1.
Ti1 Ti4+ 4 c 0.3884(8) 0.25 0.24990(16) 0.0232(11) 0.5
Li1 Li1+ 4 c 0.3884(8) 0.25 0.24990(16) 0.0232(11) 0.25
Ti2 Ti4+ 8 d 0.7561(8) 0.0741(5) 0.5268(2) 0.0086(14) 0.125
Li2 Li1+ 8 d 0.7561(8) 0.0741(5) 0.5268(2) 0.0086(14) 0.875
Li3 Li1+ 4 c 0.744(3) 0.25 0.6963(8) 0.021(3) 1.
O1 O2- 4 c 0.1326(12) 0.25 0.3422(3) 0.0155(12) 1.
O2 O2- 4 c -0.0511(11) 0.25 0.5060(3) 0.0139(11) 1.
O3 O2- 8 d 0.4204(7) 0.1170(4) 0.4617(2) 0.0139(8) 1.
O4 O2- 8 d 0.4449(7) -0.1141(3) 0.3740(2) 0.0131(8) 1.
O5 O2- 8 d 0.9249(7) -0.1214(4) 0.2866(2) 0.0170(9) 1.
O6 O2- 8 d 0.6381(8) 0.1204(3) 0.2934(2) 0.0131(8) 1.
O7 O2- 8 d 0.9201(8) 0.0119(4) 0.4239(2) 0.0148(8) 1.
#End of TTdata_245933-ICSD
#
