(C) 2022 by FIZ Karlsruhe - Leibniz Institute for Information Infrastructure.  All rights reserved.
data_85917-ICSD
_database_code_ICSD 85917
_audit_creation_date 1999-11-30
_chemical_name_common 'Manganese vanadium molybdenum oxide (2.47/0.94/1.06/8)'
_chemical_formula_structural 'Mn2.47 V0.94 Mo1.06 O8'
_chemical_formula_sum 'Mn2.47 Mo1.06 O8 V0.94'
_chemical_name_structure_type Lyonsite#Li3Fe(MoO4)3
_exptl_crystal_density_diffrn 4.22
_diffrn_ambient_temperature 153.
_citation_title 'Crystal growth and structure of Mn2.47 V0.94 Mo1.06 O8'
loop_
_citation_id
_citation_journal_full
_citation_year
_citation_journal_volume
_citation_page_first
_citation_page_last
_citation_journal_id_ASTM
primary 'Journal of Alloys and Compounds' 1998 267 79 85 JALCEU
loop_
_citation_author_citation_id
_citation_author_name
primary 'Wang, X.-D.'
primary 'Heier, K.R.'
primary 'Stern, C.L.'
primary 'Poeppelmeier, K.R.'
_cell_length_a 5.167(2)
_cell_length_b 10.580(3)
_cell_length_c 17.868(4)
_cell_angle_alpha 90.
_cell_angle_beta 90.
_cell_angle_gamma 90.
_cell_volume 976.79
_cell_formula_units_Z 6
_space_group_name_H-M_alt 'P n m a'
_space_group_IT_number 62
loop_
_space_group_symop_id
_space_group_symop_operation_xyz
1 'x+1/2, y, -z+1/2'
2 'x, -y+1/2, z'
3 '-x+1/2, y+1/2, z+1/2'
4 '-x, -y, -z'
5 '-x+1/2, -y, z+1/2'
6 '-x, y+1/2, -z'
7 'x+1/2, -y+1/2, -z+1/2'
8 'x, y, z'
loop_
_atom_type_symbol
_atom_type_oxidation_number
Mo6+ 6
V5+ 5
Mn2+ 2
O2- -2
loop_
_atom_site_label
_atom_site_type_symbol
_atom_site_symmetry_multiplicity
_atom_site_Wyckoff_symbol
_atom_site_fract_x
_atom_site_fract_y
_atom_site_fract_z
_atom_site_B_iso_or_equiv
_atom_site_occupancy
Mo1 Mo6+ 4 c 0.2204(5) 0.75 0.4435(1) 0.61(4) 0.53
Mo2 Mo6+ 8 d 0.7240(3) 0.4710(1) 0.34325(7) 0.65(3) 0.53
V1 V5+ 4 c 0.2204(5) 0.75 0.4435(1) 0.61(4) 0.47
V2 V5+ 8 d 0.7240(3) 0.4710(1) 0.34325(7) 0.65(3) 0.47
Mn1 Mn2+ 8 d 0.7503(4) 0.5778(2) 0.52802(9) 0.82(4) 1.
Mn2 Mn2+ 4 c -.093(1) 0.75 0.2488(3) 3.0(1) 0.705
Mn3 Mn2+ 4 c 0.2548(7) 0.25 0.3018(1) 0.91(5) 1.
O1 O2- 8 d -.074(2) 0.3724(8) 0.2873(4) 0.9(2) 1.
O2 O2- 8 d 0.651(2) 0.6098(9) 0.2970(5) 1.6(2) 1.
O3 O2- 8 d -.090(2) 0.5058(8) 0.4231(4) 0.7(2) 1.
O4 O2- 8 d 0.448(2) 0.3854(8) 0.3707(4) 0.6(2) 1.
O5 O2- 4 c -.051(3) 0.75 0.5042(7) 1.0(2) 1.
O6 O2- 8 d 0.413(2) 0.8819(8) 0.4639(4) 0.6(2) 1.
O7 O2- 4 c 0.144(3) 0.75 0.3495(7) 1.3(3) 1.
#End of TTdata_85917-ICSD
#
