(C) 2022 by FIZ Karlsruhe - Leibniz Institute for Information Infrastructure.  All rights reserved.
data_170956-ICSD
_database_code_ICSD 170956
_audit_creation_date 2006-04-01
_chemical_name_common 'Dilithium dimagnesium tetrakis(molybdate)'
_chemical_formula_structural 'Li2 Mg2 (Mo O4)3'
_chemical_formula_sum 'Li2 Mg2 Mo3 O12'
_chemical_name_structure_type Lyonsite#Li3Fe(MoO4)3
_exptl_crystal_density_diffrn 3.82
_citation_title

;
Synthesis, structure and lithium-ion conductivity of Li(2-2x) Mg(2+x) (Mo O4)3
and Li3 M (Mo O4)3 (M(III) = Cr, Fe)
;
loop_
_citation_id
_citation_journal_full
_citation_year
_citation_journal_volume
_citation_page_first
_citation_page_last
_citation_journal_id_ASTM
primary 'Journal of Materials Chemistry' 2003 13 1797 1802 JMACEP
loop_
_citation_author_citation_id
_citation_author_name
primary 'Sebastian, L.'
primary 'Piffard, Y.'
primary 'Shukla, A.K.'
primary 'Taulelle, F.'
primary 'Gopalakrishnan, J.'
_cell_length_a 5.1167
_cell_length_b 10.4646
_cell_length_c 17.6228
_cell_angle_alpha 90.
_cell_angle_beta 90.
_cell_angle_gamma 90.
_cell_volume 943.6
_cell_formula_units_Z 4
_space_group_name_H-M_alt 'P n m a'
_space_group_IT_number 62
loop_
_space_group_symop_id
_space_group_symop_operation_xyz
1 'x+1/2, y, -z+1/2'
2 'x, -y+1/2, z'
3 '-x+1/2, y+1/2, z+1/2'
4 '-x, -y, -z'
5 '-x+1/2, -y, z+1/2'
6 '-x, y+1/2, -z'
7 'x+1/2, -y+1/2, -z+1/2'
8 'x, y, z'
loop_
_atom_type_symbol
_atom_type_oxidation_number
Mo6+ 6
Mg2+ 2
Li1+ 1
Mg2+ 2
Li1+ 1
Mg2+ 2
Li1+ 1
O2- -2
loop_
_atom_site_label
_atom_site_type_symbol
_atom_site_symmetry_multiplicity
_atom_site_Wyckoff_symbol
_atom_site_fract_x
_atom_site_fract_y
_atom_site_fract_z
_atom_site_U_iso_or_equiv
_atom_site_occupancy
Mo1 Mo6+ 4 c 0.22044(7) 0.25 0.05688(2) 0.00721(7) 1
Mo2 Mo6+ 8 d 0.27554(5) 0.02686(2) 0.84338(1) 0.00811(5) 1
Mg1 Mg2+ 8 d 0.7529(3) 0.0750(1) 0.97230(6) 0.0099(2) 0.659(3)
Li1 Li1+ 8 d 0.7529(3) 0.0750(1) 0.97230(6) 0.0099(2) 0.341(3)
Mg2 Mg2+ 4 c 0.3984(5) 0.25 0.2492(1) 0.0153(6) 0.471(5)
Li2 Li1+ 4 c 0.3984(5) 0.25 0.2492(1) 0.0153(6) 0.529(5)
Mg3 Mg2+ 4 c 0.7433(7) 0.25 0.8013(2) 0.0123(9) 0.210(4)
Li3 Li1+ 4 c 0.7433(7) 0.25 0.8013(2) 0.0123(9) 0.790(4)
O1 O2- 8 d 0.5578(4) 0.1130(2) 0.8729(1) 0.0120(5) 1
O2 O2- 4 c 0.1445(5) 0.25 0.1534(1) 0.0108(6) 1
O3 O2- 8 d 0.4175(4) 0.1159(2) 0.0364(1) 0.0105(5) 1
O4 O2- 4 c 0.9428(5) 0.25 0.9948(1) 0.0109(7) 1
O5 O2- 8 d 0.3510(4) 0.8836(2) 0.7950(1) 0.0106(4) 1
O6 O2- 8 d 0.0813(4) 0.9905(2) 0.9247(1) 0.0116(5) 1
O7 O2- 8 d 0.0772(4) 0.1242(2) 0.7868(1) 0.0145(5) 1
loop_
_atom_site_aniso_label
_atom_site_aniso_type_symbol
_atom_site_aniso_U_11
_atom_site_aniso_U_22
_atom_site_aniso_U_33
_atom_site_aniso_U_12
_atom_site_aniso_U_13
_atom_site_aniso_U_23
Mo1 Mo6+ 0.0080(1) 0.0071(1) 0.0065(1) 0 0.0001(1) 0
Mo2 Mo6+ 0.00933(9) 0.00716(8) 0.00785(8) 0.00082(9) 0.00038(9) -0.00100(7)
O1 O2- 0.0134(9) 0.0113(9) 0.0113(8) -0.0021(8) -0.0001(7) 0.0006(8)
O2 O2- 0.014(1) 0.013(1) 0.006(1) 0 0.002(1) 0
O3 O2- 0.0102(8) 0.0094(8) 0.0119(8) 0.0010(7) 0.0010(7) -0.0021(7)
O4 O2- 0.011(1) 0.010(1) 0.011(1) 0 0.000(1) 0
O5 O2- 0.0113(8) 0.0096(8) 0.0110(7) 0.0004(8) 0.0015(7) -0.0026(7)
O6 O2- 0.0108(9) 0.0139(9) 0.0101(8) 0.0004(8) 0.0020(7) 0.0009(7)
O7 O2- 0.0145(9) 0.0148(9) 0.0143(9) 0.0024(8) -0.0004(8) 0.0038(8)
#End of TTdata_170956-ICSD
#
