(C) 2022 by FIZ Karlsruhe - Leibniz Institute for Information Infrastructure.  All rights reserved.
data_82559-ICSD
_database_code_ICSD 82559
_audit_creation_date 1997-11-10
_chemical_name_common 'Magnesium vanadium molybdenum oxide (2.54/1.08/0.92/8)'
_chemical_formula_structural 'Mg2.54 V1.08 Mo0.92 O8'
_chemical_formula_sum 'Mg2.54 Mo0.92 O8 V1.08'
_chemical_name_structure_type Lyonsite#Li3Fe(MoO4)3
_exptl_crystal_density_diffrn 3.66
_diffrn_ambient_temperature 153.
_citation_title

;
Phase relations in the Mg Mo O4 - Mg3 V2 O8 system and crystal structure of
Mg2.54 V1.08 Mo0.92 O8
;
loop_
_citation_id
_citation_journal_full
_citation_year
_citation_journal_volume
_citation_page_first
_citation_page_last
_citation_journal_id_ASTM
primary 'Journal of Alloys and Compounds' 1996 243 51 58 JALCEU
loop_
_citation_author_citation_id
_citation_author_name
primary 'Wang, X.'
primary 'Stern, C.L.'
primary 'Poeppelmeier, K.R.'
_cell_length_a 5.058(1)
_cell_length_b 10.307(3)
_cell_length_c 17.4020(40)
_cell_angle_alpha 90.
_cell_angle_beta 90.
_cell_angle_gamma 90.
_cell_volume 907.22
_cell_formula_units_Z 6
_space_group_name_H-M_alt 'P n m a'
_space_group_IT_number 62
loop_
_space_group_symop_id
_space_group_symop_operation_xyz
1 'x+1/2, y, -z+1/2'
2 'x, -y+1/2, z'
3 '-x+1/2, y+1/2, z+1/2'
4 '-x, -y, -z'
5 '-x+1/2, -y, z+1/2'
6 '-x, y+1/2, -z'
7 'x+1/2, -y+1/2, -z+1/2'
8 'x, y, z'
loop_
_atom_type_symbol
_atom_type_oxidation_number
Mo6+ 6
V5+ 5
Mg2+ 2
O2- -2
loop_
_atom_site_label
_atom_site_type_symbol
_atom_site_symmetry_multiplicity
_atom_site_Wyckoff_symbol
_atom_site_fract_x
_atom_site_fract_y
_atom_site_fract_z
_atom_site_B_iso_or_equiv
_atom_site_occupancy
Mo1 Mo6+ 4 c 0.2184(1) 0.75 0.44364(4) 0.40(2) 0.46
Mo2 Mo6+ 8 d 0.7210(1) 0.47097(5) 0.34366(3) 0.48(2) 0.46
V1 V5+ 4 c 0.2184(1) 0.75 0.44364(4) 0.40(2) 0.54
V2 V5+ 8 d 0.7210(1) 0.47097(5) 0.34366(3) 0.48(2) 0.54
Mg1 Mg2+ 8 d 0.7512(3) 0.5761(1) 0.52709(8) . 1.
Mg2 Mg2+ 4 c -.0943(7) 0.75 0.2493(2) . 0.81
Mg3 Mg2+ 4 c 0.2529(4) 0.25 0.3029(1) . 1.
O1 O2- 8 d -.0791(6) 0.3722(3) 0.2867(2) . 1.
O2 O2- 8 d 0.6543(6) 0.6128(3) 0.2959(2) . 1.
O3 O2- 8 d -.0870(6) 0.5051(3) 0.4244(2) . 1.
O4 O2- 8 d 0.4361(6) 0.3854(3) 0.3718(2) . 1.
O5 O2- 4 c -.0606(8) 0.75 0.5050(2) . 1.
O6 O2- 8 d 0.4129(6) 0.8848(3) 0.4643(2) . 1.
O7 O2- 4 c 0.1494(9) 0.75 0.3473(3) . 1.
loop_
_atom_site_aniso_label
_atom_site_aniso_type_symbol
_atom_site_aniso_U_11
_atom_site_aniso_U_22
_atom_site_aniso_U_33
_atom_site_aniso_U_12
_atom_site_aniso_U_13
_atom_site_aniso_U_23
Mg1 Mg2+ 0.0063(7) 0.0110(8) 0.0149(8) 0.0001(6) -.0011(6) -.0028(6)
Mg2 Mg2+ 0.053(2) 0.015(1) 0.018(1) 0 0.007(2) 0
Mg3 Mg2+ 0.008(1) 0.014(1) 0.013(1) 0 -.011(9) 0
O1 O2- 0.010(2) 0.013(2) 0.017(1) 0.002(1) -.002(1) -.003(1)
O2 O2- 0.015(2) 0.016(2) 0.013(2) 0.000(2) 0.001(1) -.001(1)
O3 O2- 0.009(2) 0.011(1) 0.012(1) 0.002(1) 0.001(1) 0.000(1)
O4 O2- 0.011(2) 0.013(2) 0.011(2) 0.000(1) -.001(1) 0.000(1)
O5 O2- 0.006(2) 0.006(2) 0.020(2) 0 -.001(2) 0
O6 O2- 0.008(2) 0.008(1) 0.012(1) 0.002(1) -.001(1) -.002(1)
O7 O2- 0.014(3) 0.011(2) 0.017(2) 0 -.002(2) 0
#End of TTdata_82559-ICSD
#
