(C) 2022 by FIZ Karlsruhe - Leibniz Institute for Information Infrastructure.  All rights reserved.
data_195520-ICSD
_database_code_ICSD 195520
_audit_creation_date 2016-02-01
_chemical_name_common
'Sodium-0.4 lithium-0.6 iron dilithium tris(tetraoxomolybdate)'
_chemical_formula_structural '(Na0.4 Li0.6) (Fe Li2) (Mo O4)3'
_chemical_formula_sum 'Fe1 Li2.6 Mo3 Na0.4 O12'
_chemical_name_structure_type Lyonsite#Li3Fe(MoO4)3
_exptl_crystal_density_diffrn 3.91
_diffrn_ambient_temperature 298.
_citation_title

;
Synthese et etude structurale de lyonsite-type (Na0.4, Li0.6) (Fe, Li2) (Mo
O4)3
;
loop_
_citation_id
_citation_journal_full
_citation_year
_citation_journal_volume
_citation_page_first
_citation_page_last
_citation_journal_id_ASTM
primary 'Acta Crystallographica, Section E: Crystallographic Communications'
2015 71 597 601 ACSECI
loop_
_citation_author_citation_id
_citation_author_name
primary 'Souilem, Amira'
primary 'Zid, Mohamed Faouzi'
primary 'Driss, Ahmed'
_cell_length_a 5.1358(7)
_cell_length_b 10.5687(9)
_cell_length_c 17.606(2)
_cell_angle_alpha 90.
_cell_angle_beta 90.
_cell_angle_gamma 90.
_cell_volume 955.63
_cell_formula_units_Z 4
_space_group_name_H-M_alt 'P n m a'
_space_group_IT_number 62
loop_
_space_group_symop_id
_space_group_symop_operation_xyz
1 'x+1/2, y, -z+1/2'
2 'x, -y+1/2, z'
3 '-x+1/2, y+1/2, z+1/2'
4 '-x, -y, -z'
5 '-x+1/2, -y, z+1/2'
6 '-x, y+1/2, -z'
7 'x+1/2, -y+1/2, -z+1/2'
8 'x, y, z'
loop_
_atom_type_symbol
_atom_type_oxidation_number
Mo6+ 6
Fe3+ 3
Li1+ 1
Fe3+ 3
Li1+ 1
Na1+ 1
Li1+ 1
O2- -2
loop_
_atom_site_label
_atom_site_type_symbol
_atom_site_symmetry_multiplicity
_atom_site_Wyckoff_symbol
_atom_site_fract_x
_atom_site_fract_y
_atom_site_fract_z
_atom_site_U_iso_or_equiv
_atom_site_occupancy
Mo1 Mo6+ 4 c 0.72100(8) 0.75 0.94298(2) 0.00764(13) 1
Mo2 Mo6+ 8 d 0.78223(6) 0.97805(3) 0.155036(18) 0.00962(13) 1
Fe1 Fe3+ 4 c 0.1092(3) 0.25 0.24993(10) 0.0111(3) 0.4
Li1 Li1+ 4 c 0.1092(3) 0.25 0.24993(10) 0.0111(3) 0.6
Fe2 Fe3+ 8 d 0.2587(3) 0.92781(16) 0.02588(9) 0.0143(3) 0.3
Li2 Li1+ 8 d 0.2587(3) 0.92781(16) 0.02588(9) 0.0143(3) 0.7
Na1 Na1+ 4 c 0.2569(8) 0.75 0.1927(3) 0.0170(9) 0.4
Li3 Li1+ 4 c 0.2569(8) 0.75 0.1927(3) 0.0170(9) 0.6
O1 O2- 8 d 0.9187(5) 0.8825(3) 0.96258(15) 0.0164(6) 1
O2 O2- 8 d 0.0596(5) 0.8926(3) 0.12403(15) 0.0175(6) 1
O3 O2- 4 c 0.4481(8) 0.75 0.0067(2) 0.0163(8) 1
O4 O2- 8 d 0.5823(6) 0.0138(3) 0.07454(15) 0.0152(6) 1
O5 O2- 8 d 0.5927(6) 0.8810(3) 0.21219(16) 0.0199(6) 1
O6 O2- 4 c 0.6384(8) 0.75 0.8444(2) 0.0142(8) 1
O7 O2- 8 d 0.8577(5) 0.1209(3) 0.20581(15) 0.0142(6) 1
loop_
_atom_site_aniso_label
_atom_site_aniso_type_symbol
_atom_site_aniso_U_11
_atom_site_aniso_U_22
_atom_site_aniso_U_33
_atom_site_aniso_U_12
_atom_site_aniso_U_13
_atom_site_aniso_U_23
Mo1 Mo6+ 0.0071(2) 0.0096(2) 0.0062(2) 0. 0.00008(15) 0.
Mo2 Mo6+ 0.00910(19) 0.01045(19) 0.00929(18) -0.00100(12) -0.00011(11)
-0.00250(12)
Fe1 Fe3+ 0.0173(8) 0.0076(7) 0.0084(7) 0. -0.0018(7) 0.
Li1 Li1+ 0.0173(8) 0.0076(7) 0.0084(7) 0. -0.0018(7) 0.
Fe2 Fe3+ 0.0129(7) 0.0160(8) 0.0140(7) -0.0010(6) 0.0003(6) -0.0022(7)
Li2 Li1+ 0.0129(7) 0.0160(8) 0.0140(7) -0.0010(6) 0.0003(6) -0.0022(7)
Na1 Na1+ 0.017(2) 0.014(2) 0.020(2) 0. -0.0016(16) 0.
Li3 Li1+ 0.017(2) 0.014(2) 0.020(2) 0. -0.0016(16) 0.
O1 O2- 0.0166(13) 0.0169(13) 0.0158(13) -0.0032(12) -0.0007(11) 0.0005(11)
O2 O2- 0.0178(13) 0.0197(15) 0.0150(13) 0.0020(13) -0.0013(11) -0.0020(11)
O3 O2- 0.0116(18) 0.022(2) 0.0152(18) 0. 0.0010(15) 0.
O4 O2- 0.0140(13) 0.0195(14) 0.0122(12) -0.0029(11) -0.0001(11) -0.0004(11)
O5 O2- 0.0181(14) 0.0212(15) 0.0204(14) -0.0054(13) 0.0021(11) 0.0036(12)
O6 O2- 0.018(2) 0.0130(19) 0.0115(18) 0. -0.0017(15) 0.
O7 O2- 0.0169(13) 0.0123(13) 0.0134(13) 0.0007(12) 0.0001(10) -0.0021(11)
#End of TTdata_195520-ICSD
#
