(C) 2022 by FIZ Karlsruhe - Leibniz Institute for Information Infrastructure.  All rights reserved.
data_280183-ICSD
_database_code_ICSD 280183
_audit_creation_date 2002-04-01
_chemical_name_common 'Cobalt iron(III) vanadate (4/3.33/6)'
_chemical_formula_structural 'Co4 Fe3.33 (V O4)6'
_chemical_formula_sum 'Co4 Fe3.33 O24 V6'
_chemical_name_structure_type Lyonsite#Li3Fe(MoO4)3
_exptl_crystal_density_diffrn 4.24
_diffrn_ambient_temperature 173.
_citation_title 'Site-specific vanadates Co4 Fe3.33 (V O4)6 and Mn3 Fe4 (V O4)6'
loop_
_citation_id
_citation_journal_full
_citation_year
_citation_journal_volume
_citation_page_first
_citation_page_last
_citation_journal_id_ASTM
primary 'Inorganic Chemistry' 2000 39 136 140 INOCAJ
loop_
_citation_author_citation_id
_citation_author_name
primary 'Wang, X.'
primary 'Vander Griend, A.'
primary 'Stern, C.L.'
primary 'Poeppelmeier, K.R.'
_cell_length_a 4.965(1)
_cell_length_b 10.211(1)
_cell_length_c 17.1880(30)
_cell_angle_alpha 90.
_cell_angle_beta 90.
_cell_angle_gamma 90.
_cell_volume 871.39
_cell_formula_units_Z 2
_space_group_name_H-M_alt 'P n m a'
_space_group_IT_number 62
loop_
_space_group_symop_id
_space_group_symop_operation_xyz
1 'x+1/2, y, -z+1/2'
2 'x, -y+1/2, z'
3 '-x+1/2, y+1/2, z+1/2'
4 '-x, -y, -z'
5 '-x+1/2, -y, z+1/2'
6 '-x, y+1/2, -z'
7 'x+1/2, -y+1/2, -z+1/2'
8 'x, y, z'
loop_
_atom_type_symbol
_atom_type_oxidation_number
Co2+ 2
Fe3+ 3
V5+ 5
O2- -2
loop_
_atom_site_label
_atom_site_type_symbol
_atom_site_symmetry_multiplicity
_atom_site_Wyckoff_symbol
_atom_site_fract_x
_atom_site_fract_y
_atom_site_fract_z
_atom_site_U_iso_or_equiv
_atom_site_occupancy
Co1 Co2+ 8 d -.2516(1) 0.42329(4) 0.02769(3) 0.0040(1) 0.17
Co2 Co2+ 4 c 0.4039(3) 0.75 0.25064(8) . 0.662(4)
Co3 Co2+ 4 c -.2545(1) 0.25 0.19691(4) . 1.
Fe1 Fe3+ 8 d -.2516(1) 0.42329(4) 0.02769(3) 0.0041 0.83
V1 V5+ 4 c -.2791(2) 0.75 0.05669(5) . 1.
V2 V5+ 8 d 0.2212(1) 0.47156(6) 0.15677(3) . 1.
O1 O2- 8 d -.5847(5) 0.3741(2) 0.2135(1) 0.0083(5) 1.
O2 O2- 8 d 0.1524(5) 0.6147(2) 0.2041(1) 0.0089(5) 1.
O3 O2- 8 d -.5869(5) 0.5050(2) 0.0747(1) 0.0068(5) 1.
O4 O2- 8 d -.0695(5) 0.3860(2) 0.1275(1) 0.0065(5) 1.
O5 O2- 4 c -.4335(7) 0.25 0.0058(2) 0.0066(7) 1.
O6 O2- 8 d -.0837(5) 0.6157(2) 0.0352(1) 0.0086(5) 1.
O7 O2- 4 c 0.1486(7) 0.75 0.3476(2) 0.0094(8) 1.
loop_
_atom_site_aniso_label
_atom_site_aniso_type_symbol
_atom_site_aniso_U_11
_atom_site_aniso_U_22
_atom_site_aniso_U_33
_atom_site_aniso_U_12
_atom_site_aniso_U_13
_atom_site_aniso_U_23
Co2 Co2+ 0.0593(10) 0.0041(5) 0.0081(5) -.000006 -.0064(7) 0.000003
Co3 Co2+ 0.0034(3) 0.005183 0.008693 -.000001 0.001012 0.000001
V1 V5+ 0.0014(4) 0.0056(4) 0.0080(4) -.000001 -.0001(3) 0.000001
V2 V5+ 0.0015(3) 0.0055(3) 0.0069(3) -.0004(2) 0.0001(2) 0.0005(2)
#End of TTdata_280183-ICSD
#
