(C) 2022 by FIZ Karlsruhe - Leibniz Institute for Information Infrastructure.  All rights reserved.
data_38822-ICSD
_database_code_ICSD 38822
_audit_creation_date 2022-08-01
_chemical_name_common 'Dilithium zinc copper tris(molybdate)'
_chemical_formula_structural 'Li2 Zn Cu (Mo O4)3'
_chemical_formula_sum 'Cu1 Li2 Mo3 O12 Zn1'
_chemical_name_structure_type Lyonsite#Li3Fe(MoO4)3
_exptl_crystal_density_diffrn 4.42
_citation_title

;
Molybdenum-based NASICON Li$_2$M$_2$(MoO$_4$)$_3$ (M = Zn, Cu). Understanding
structural evolution and lithium storage mechanism
;
loop_
_citation_id
_citation_journal_full
_citation_year
_citation_journal_volume
_citation_page_first
_citation_page_last
_citation_journal_id_ASTM
primary 'Journal of Alloys and Compounds' 2022 890 '' '' JALCEU
loop_
_citation_author_citation_id
_citation_author_name
primary 'Zhang, Ke'
primary 'Kuang, Quan'
primary 'Wu, Jian'
primary 'Chen, Siyuan'
primary 'Wen, Ni'
primary 'Fan, Qinghua'
primary 'Dong, Youzhong'
primary 'Zhao, Yanming'
_cell_length_a 5.0754(7)
_cell_length_b 10.4747(1)
_cell_length_c 17.5994(4)
_cell_angle_alpha 90.
_cell_angle_beta 90.
_cell_angle_gamma 90.
_cell_volume 935.64
_cell_formula_units_Z 4
_space_group_name_H-M_alt 'P n m a'
_space_group_IT_number 62
loop_
_space_group_symop_id
_space_group_symop_operation_xyz
1 'x+1/2, y, -z+1/2'
2 'x, -y+1/2, z'
3 '-x+1/2, y+1/2, z+1/2'
4 '-x, -y, -z'
5 '-x+1/2, -y, z+1/2'
6 '-x, y+1/2, -z'
7 'x+1/2, -y+1/2, -z+1/2'
8 'x, y, z'
loop_
_atom_type_symbol
_atom_type_oxidation_number
Mo6+ 6
Zn2+ 2
Cu2+ 2
Li1+ 1
Zn2+ 2
Li1+ 1
Zn2+ 2
Li1+ 1
O2- -2
loop_
_atom_site_label
_atom_site_type_symbol
_atom_site_symmetry_multiplicity
_atom_site_Wyckoff_symbol
_atom_site_fract_x
_atom_site_fract_y
_atom_site_fract_z
_atom_site_B_iso_or_equiv
_atom_site_occupancy
Mo1 Mo6+ 4 c 0.2195(8) 0.25 0.0556(0) . 1
Mo2 Mo6+ 8 d 0.2739(1) 0.0273(9) 0.8445(2) . 1
Zn1 Zn2+ 8 d 0.7477(7) 0.0785(1) 0.9735(3) . 0.16
Cu1 Cu2+ 8 d 0.7477(7) 0.0785(1) 0.9735(3) . 0.5
Li1 Li1+ 8 d 0.7477(7) 0.0785(1) 0.9735(3) . 0.34
Zn2 Zn2+ 4 c 0.3891(4) 0.25 0.2449(7) . 0.47
Li2 Li1+ 4 c 0.3891(4) 0.25 0.2449(7) . 0.53
Zn3 Zn2+ 4 c 0.7799(0) 0.25 0.8202(4) . 0.21
Li3 Li1+ 4 c 0.7799(0) 0.25 0.8202(4) . 0.79
O1 O2- 8 d 0.5470(8) 0.1170(4) 0.8663(3) . 1
O2 O2- 4 c 0.1418(6) 0.25 0.1505(6) . 1
O3 O2- 8 d 0.4317(4) 0.1214(8) 0.0410(1) . 1
O4 O2- 4 c 0.9340(9) 0.25 -0.0046(2) . 1
O5 O2- 8 d 0.3696(5) -0.0930(2) 0.7973(9) . 1
O6 O2- 8 d 0.0578(4) -0.0059(0) 0.9186(2) . 1
O7 O2- 8 d 0.0451(5) 0.1385(4) 0.7898(1) . 1
#End of TTdata_38822-ICSD
#
