(C) 2022 by FIZ Karlsruhe - Leibniz Institute for Information Infrastructure.  All rights reserved.
data_95724-ICSD
_database_code_ICSD 95724
_audit_creation_date 2004-04-01
_chemical_name_common 'Cobalt iron(III) vanadate (3.6/3.6/6)'
_chemical_formula_structural '(Co3.6 Fe3.6) (V O4)6'
_chemical_formula_sum 'Co3.6 Fe3.6 O24 V6'
_chemical_name_structure_type Lyonsite#Li3Fe(MoO4)3
_exptl_crystal_density_diffrn 4.19
_citation_title

;
Synchrotron X-ray and TOF neutron powder diffraction study of a lyonsite-type
oxide Co3.6 Fe3.6 (V O4)6
;
loop_
_citation_id
_citation_journal_full
_citation_year
_citation_journal_volume
_citation_page_first
_citation_page_last
_citation_journal_id_ASTM
primary 'Solid State Sciences' 2002 4 515 522 SSSCFJ
loop_
_citation_author_citation_id
_citation_author_name
primary 'Belik, A.A.'
primary 'Izumi, F.'
primary 'Ikeda, T.'
primary 'Nisawa, A.'
primary 'Kamiyama, T.'
primary 'Oikawa, K.'
_cell_length_a 4.96480(9)
_cell_length_b 10.2245(2)
_cell_length_c 17.2100(3)
_cell_angle_alpha 90
_cell_angle_beta 90
_cell_angle_gamma 90
_cell_volume 873.62
_cell_formula_units_Z 2
_space_group_name_H-M_alt 'P n m a'
_space_group_IT_number 62
loop_
_space_group_symop_id
_space_group_symop_operation_xyz
1 'x+1/2, y, -z+1/2'
2 'x, -y+1/2, z'
3 '-x+1/2, y+1/2, z+1/2'
4 '-x, -y, -z'
5 '-x+1/2, -y, z+1/2'
6 '-x, y+1/2, -z'
7 'x+1/2, -y+1/2, -z+1/2'
8 'x, y, z'
loop_
_atom_type_symbol
_atom_type_oxidation_number
Fe3+ 3
Co2+ 2
Fe3+ 3
Co2+ 2
Fe3+ 3
Co2+ 2
V5+ 5
O2- -2
loop_
_atom_site_label
_atom_site_type_symbol
_atom_site_symmetry_multiplicity
_atom_site_Wyckoff_symbol
_atom_site_fract_x
_atom_site_fract_y
_atom_site_fract_z
_atom_site_U_iso_or_equiv
_atom_site_occupancy
Fe1 Fe3+ 4 c 0.2418(14) 0.25 0.8028(5) 0.0127 0.096
Co1 Co2+ 4 c 0.2418(14) 0.25 0.8028(5) 0.0127 0.844
Fe2 Fe3+ 8 d 0.2480(5) 0.4235(2) 0.9721(2) 0.0055 0.555
Co2 Co2+ 8 d 0.2480(5) 0.4235(2) 0.9721(2) 0.0055 0.445
Fe3 Fe3+ 4 c 0.0948(8) 0.25 0.2512(2) 0.0233 0.594
Co3 Co2+ 4 c 0.0948(8) 0.25 0.2512(2) 0.0233 0.066
V1 V5+ 4 c 0.7773 0.25 0.05674 0.0097 1.
V2 V5+ 8 d 0.722 0.47241 0.84315 0.0098 1.
O1 O2- 8 d 0.6530(5) 0.6148(2) 0.7964(2) 0.0115(7) 1.
O2 O2- 8 d 0.4311(5) 0.3860(2) 0.8723(2) 0.0070(5) 1.
O3 O2- 4 c 0.0663(7) 0.25 0.9934(2) 0.0094(9) 1.
O4 O2- 8 d 0.5836(5) 0.3853(3) 0.0349(2) 0.0063(6) 1.
O5 O2- 8 d 0.9146(5) 0.5053(2) 0.9265(2) 0.0060(6) 1.
O6 O2- 4 c 0.6505(8) 0.75 0.6517(2) 0.0071(9) 1.
O7 O2- 8 d -0.0864(5) 0.3731(2) 0.7877(2) 0.0100(6) 1.
loop_
_atom_site_aniso_label
_atom_site_aniso_type_symbol
_atom_site_aniso_U_11
_atom_site_aniso_U_22
_atom_site_aniso_U_33
_atom_site_aniso_U_12
_atom_site_aniso_U_13
_atom_site_aniso_U_23
Fe1 Fe3+ 0.011(4) 0.007(4) 0.020(5) 0. -0.009(4) 0.
Co1 Co2+ 0.011(4) 0.007(4) 0.020(5) 0. -0.009(4) 0.
Fe2 Fe3+ 0.0048(12) 0.0062(11) 0.0056(12) 0. 0. 0.
Co2 Co2+ 0.0048(12) 0.0062(11) 0.0056(12) 0. 0. 0.
Fe3 Fe3+ 0.061(3) 0.002(2) 0.007(2) 0. 0.013(3) 0.
Co3 Co2+ 0.061(3) 0.002(2) 0.007(2) 0. 0.013(3) 0.
#End of TTdata_95724-ICSD
#
