(C) 2022 by FIZ Karlsruhe - Leibniz Institute for Information Infrastructure.  All rights reserved.
data_16215-ICSD
_database_code_ICSD 16215
_audit_creation_date 1980-01-01
_audit_update_record 2009-02-01
_chemical_name_common 'Dilithium diiron tris(molybdate)'
_chemical_formula_structural 'Li2 Fe2 (Mo O4)3'
_chemical_formula_sum 'Fe2 Li2 Mo3 O12'
_chemical_name_structure_type Lyonsite#Li3Fe(MoO4)3
_exptl_crystal_density_diffrn 4.2
_citation_title

;
Crystal structure of lithium iron molybdates Li3 Fe (Mo O4)3 and Li2 Fe2 (Mo
O4)3
;
loop_
_citation_id
_citation_journal_full
_citation_year
_citation_journal_volume
_citation_page_first
_citation_page_last
_citation_journal_id_ASTM
primary Kristallografiya 1970 15 710 715 KRISAJ
loop_
_citation_author_citation_id
_citation_author_name
primary 'Klevtsova, R.F.'
primary 'Magarill, S.A.'
_cell_length_a 5.11
_cell_length_b 10.56
_cell_length_c 17.75
_cell_angle_alpha 90.
_cell_angle_beta 90.
_cell_angle_gamma 90.
_cell_volume 957.82
_cell_formula_units_Z 4
_space_group_name_H-M_alt 'P n m a'
_space_group_IT_number 62
loop_
_space_group_symop_id
_space_group_symop_operation_xyz
1 'x+1/2, y, -z+1/2'
2 'x, -y+1/2, z'
3 '-x+1/2, y+1/2, z+1/2'
4 '-x, -y, -z'
5 '-x+1/2, -y, z+1/2'
6 '-x, y+1/2, -z'
7 'x+1/2, -y+1/2, -z+1/2'
8 'x, y, z'
loop_
_atom_type_symbol
_atom_type_oxidation_number
Mo6+ 6
Fe2+ 2
Li1+ 1
Fe2+ 2
Li1+ 1
O2- -2
loop_
_atom_site_label
_atom_site_type_symbol
_atom_site_symmetry_multiplicity
_atom_site_Wyckoff_symbol
_atom_site_fract_x
_atom_site_fract_y
_atom_site_fract_z
_atom_site_B_iso_or_equiv
_atom_site_occupancy
Mo1 Mo6+ 8 d 0.2793(6) 0.52672(29) 0.15690(29) 0.75(6) 1.
Mo2 Mo6+ 4 c 0.7807(10) 0.25 0.05806(24) 0.65(7) 1.
Fe1 Fe2+ 4 c 0.1074(32) 0.25 0.2504(10) 1.86(22) 0.6667
Li1 Li1+ 4 c 0.1074(32) 0.25 0.2504(10) 1.86(22) 0.3333
Fe2 Fe2+ 8 d 0.7506(25) 0.5741(10) 0.0273(6) 2.20(18) 0.6667
Li2 Li1+ 8 d 0.7506(25) 0.5741(10) 0.0273(6) 2.20(18) 0.3333
Li3 Li1+ 4 c 0.247(25) 0.75 0.300(6) 2.0(2) 1.
O1 O2- 4 c 0.851(8) 0.25 0.1534(24) 1.1(6) 1.
O2 O2- 4 c 0.063(9) 0.25 -.0039(25) 0.4(5) 1.
O3 O2- 8 d 0.590(6) 0.1184(28) 0.0404(15) 0.7(4) 1.
O4 O2- 8 d 0.084(6) 0.4890(27) 0.0747(15) 0.6(4) 1.
O5 O2- 8 d 0.081(6) 0.6261(29) 0.2137(16) 1.2(5) 1.
O6 O2- 8 d 0.354(6) 0.3817(28) 0.2055(15) 0.6(4) 1.
O7 O2- 8 d 0.558(6) 0.6160(31) 0.1244(17) 1.3(5) 1.
#End of TTdata_16215-ICSD
#
