(C) 2022 by FIZ Karlsruhe - Leibniz Institute for Information Infrastructure.  All rights reserved.
data_75900-ICSD
_database_code_ICSD 75900
_audit_creation_date 1996-04-22
_chemical_name_common 'Dilithium dimagnesium tris(tungstate)'
_chemical_formula_structural 'Li2 Mg2 (W O4)3'
_chemical_formula_sum 'Li2 Mg2 O12 W3'
_chemical_name_structure_type Lyonsite#Li3Fe(MoO4)3
_exptl_crystal_density_diffrn 5.68
_citation_title 'Crystal structure of a new compound Li2 Mg2 (W O4)3'
loop_
_citation_id
_citation_journal_full
_citation_year
_citation_journal_volume
_citation_page_first
_citation_page_last
_citation_journal_id_ASTM
primary 'Powder Diffraction' 1994 9 158 160 PODIE2
loop_
_citation_author_citation_id
_citation_author_name
primary 'Fu, Z.-M.'
primary 'Li, W.-X.'
_cell_length_a 5.1129
_cell_length_b 10.462
_cell_length_c 17.612
_cell_angle_alpha 90.
_cell_angle_beta 90.
_cell_angle_gamma 90.
_cell_volume 942.09
_cell_formula_units_Z 4
_space_group_name_H-M_alt 'P n m a'
_space_group_IT_number 62
loop_
_space_group_symop_id
_space_group_symop_operation_xyz
1 'x+1/2, y, -z+1/2'
2 'x, -y+1/2, z'
3 '-x+1/2, y+1/2, z+1/2'
4 '-x, -y, -z'
5 '-x+1/2, -y, z+1/2'
6 '-x, y+1/2, -z'
7 'x+1/2, -y+1/2, -z+1/2'
8 'x, y, z'
loop_
_atom_type_symbol
_atom_type_oxidation_number
Li1+ 1
Mg2+ 2
W6+ 6
O2- -2
loop_
_atom_site_label
_atom_site_type_symbol
_atom_site_symmetry_multiplicity
_atom_site_Wyckoff_symbol
_atom_site_fract_x
_atom_site_fract_y
_atom_site_fract_z
_atom_site_B_iso_or_equiv
_atom_site_occupancy
Li1 Li1+ 4 c 0.1074(32) 0.25 0.2504(10) 1.86 0.333
Li2 Li1+ 8 d 0.7506(25) 0.5741(10) 0.0273(6) 2.2 0.333
Li3 Li1+ 4 c 0.247 0.75 0.3 2. 1.
Mg1 Mg2+ 4 c 0.1074(32) 0.25 0.2504(10) 1.86 0.667
Mg2 Mg2+ 8 d 0.7506(25) 0.5741(10) 0.0273(6) 2.2 0.667
W1 W6+ 8 d 0.2793(6) 0.5267(3) 0.1569(2) 0.75 1.
W2 W6+ 4 c 0.7807(10) 0.25 0.0581(2) 0.65 1.
O1 O2- 4 c 0.851(8) 0.25 0.1534(24) 1.1 1.
O2 O2- 4 c 0.063(9) 0.25 -.0039(25) 0.4 1.
O3 O2- 8 d 0.590(6) 0.1184(28) 0.0404(15) 0.7 1.
O4 O2- 8 d 0.084(6) 0.4890(27) 0.0747(15) 0.6 1.
O5 O2- 8 d 0.081(6) 0.6261(29) 0.2137(16) 1.2 1.
O6 O2- 8 d 0.354(6) 0.3817(28) 0.2055(15) 0.6 1.
O7 O2- 8 d 0.558(6) 0.6160(31) 0.1244(17) 1.3 1.
#End of TTdata_75900-ICSD
#
