(C) 2022 by FIZ Karlsruhe - Leibniz Institute for Information Infrastructure.  All rights reserved.
data_51846-ICSD
_database_code_ICSD 51846
_audit_creation_date 2004-04-01
_chemical_name_common 'Cobalt vanadomolybdate (2.5/1)'
_chemical_formula_structural 'Co2.5 (V Mo O8)'
_chemical_formula_sum 'Co2.5 Mo1 O8 V1'
_chemical_name_structure_type Lyonsite#Li3Fe(MoO4)3
_exptl_crystal_density_diffrn 4.63
_citation_title 'The structure and selected properties of Co(2.5) V Mo O8'
loop_
_citation_id
_citation_journal_full
_citation_year
_citation_journal_volume
_citation_page_first
_citation_page_last
_citation_journal_id_ASTM
primary 'Journal of Materials Science' 2003 38 3137 3142 JMTSAS
loop_
_citation_author_citation_id
_citation_author_name
primary 'Kurzawa, M.'
primary 'Bosacka, M.'
primary 'Jakubus, P.'
_cell_length_a 5.0453(3)
_cell_length_b 10.3448(5)
_cell_length_c 17.39925(9)
_cell_angle_alpha 90
_cell_angle_beta 90
_cell_angle_gamma 90
_cell_volume 908.11
_cell_formula_units_Z 6
_space_group_name_H-M_alt 'P n m a'
_space_group_IT_number 62
loop_
_space_group_symop_id
_space_group_symop_operation_xyz
1 'x+1/2, y, -z+1/2'
2 'x, -y+1/2, z'
3 '-x+1/2, y+1/2, z+1/2'
4 '-x, -y, -z'
5 '-x+1/2, -y, z+1/2'
6 '-x, y+1/2, -z'
7 'x+1/2, -y+1/2, -z+1/2'
8 'x, y, z'
loop_
_atom_type_symbol
_atom_type_oxidation_number
Co2+ 2
V5+ 5
Mo6+ 6
V5+ 5
Mo6+ 6
O2- -2
loop_
_atom_site_label
_atom_site_type_symbol
_atom_site_symmetry_multiplicity
_atom_site_Wyckoff_symbol
_atom_site_fract_x
_atom_site_fract_y
_atom_site_fract_z
_atom_site_B_iso_or_equiv
_atom_site_occupancy
Co1 Co2+ 8 d 0.2617(8) 0.4262(3) 0.4711(2) . 1.
Co2 Co2+ 4 c 0.3960(8) 0.25 0.7467(2) . 1.
Co3 Co2+ 4 c 0.2569(13) 0.25 0.2992(3) . 0.75
V1 V5+ 4 c 0.7216(8) 0.25 0.5541(2) . 0.5
Mo1 Mo6+ 4 c 0.7216(8) 0.25 0.5541(2) . 0.5
V2 V5+ 8 d 0.7684(7) 0.4714(2) 0.3404(2) . 0.5
Mo2 Mo6+ 8 d 0.7684(7) 0.4714(2) 0.3404(2) . 0.5
O1 O2- 4 c 0.6710(21) 0.25 0.6535(3) . 1.
O2 O2- 4 c 0.4024(19) 0.25 0.5170(10) . 1.
O3 O2- 8 d 0.8661(11) 0.6245(7) 0.3139(6) . 1.
O4 O2- 8 d 0.9317(24) 0.1192(9) 0.5409(9) . 1.
O5 O2- 8 d 0.5880(17) 0.4896(16) 0.4255(4) . 1.
O6 O2- 8 d 0.5666(13) 0.3687(12) 0.2857(7) . 1.
O7 O2- 8 d 0.0631(22) 0.3956(14) 0.3648(5) . 1.
#End of TTdata_51846-ICSD
#
