(C) 2022 by FIZ Karlsruhe - Leibniz Institute for Information Infrastructure.  All rights reserved.
data_202361-ICSD
_database_code_ICSD 202361
_audit_creation_date 1988-05-17
_audit_update_record 2007-08-01
_chemical_name_common 'Copper iron(III) vanadate (3.18/4/6)'
_chemical_formula_structural 'Cu3.18 Fe4 (V O4)6'
_chemical_formula_sum 'Cu3.18 Fe4 O24 V6'
_chemical_name_structure_type Lyonsite#Li3Fe(MoO4)3
_chemical_name_mineral Lyonsite
_exptl_crystal_density_diffrn 4.26
_citation_title

;
Lyonsite, Cu(2+)3 Fe(3+)4 ((V O4)3-)6, a new fumarolic sublimate from Izalco
volcano, El Salvador: Descriptive mineralogy and crystal structure
;
loop_
_citation_id
_citation_journal_full
_citation_year
_citation_journal_volume
_citation_page_first
_citation_page_last
_citation_journal_id_ASTM
primary 'American Mineralogist' 1987 72 1000 1005 AMMIAY
loop_
_citation_author_citation_id
_citation_author_name
primary 'Hughes, J.M.'
primary 'Starkey, S.J.'
primary 'Malinconico, M.L.'
primary 'Malinconico, L.L.'
_cell_length_a 10.296(1)
_cell_length_b 17.2070(20)
_cell_length_c 4.910(1)
_cell_angle_alpha 90.
_cell_angle_beta 90.
_cell_angle_gamma 90.
_cell_volume 869.87
_cell_formula_units_Z 2
_space_group_name_H-M_alt 'P m c n'
_space_group_IT_number 62
loop_
_space_group_symop_id
_space_group_symop_operation_xyz
1 'x, -y+1/2, z+1/2'
2 '-x+1/2, y, z'
3 'x+1/2, y+1/2, -z+1/2'
4 '-x, -y, -z'
5 '-x, y+1/2, -z+1/2'
6 'x+1/2, -y, -z'
7 '-x+1/2, -y+1/2, z+1/2'
8 'x, y, z'
loop_
_atom_type_symbol
_atom_type_oxidation_number
Cu2+ 2
Fe3+ 3
V5+ 5
O2- -2
loop_
_atom_site_label
_atom_site_type_symbol
_atom_site_symmetry_multiplicity
_atom_site_Wyckoff_symbol
_atom_site_fract_x
_atom_site_fract_y
_atom_site_fract_z
_atom_site_B_iso_or_equiv
_atom_site_occupancy
Cu1 Cu2+ 4 c 0.75 0.7497(2) 0.9080(6) . 0.59
Cu2 Cu2+ 4 c 0.25 0.82189(7) 0.2113(2) . 1.
Fe1 Fe3+ 8 d 0.42409(8) 0.97289(4) 0.2476(2) . 1.
V1 V5+ 4 c 0.25 0.05727(9) -.2293(3) . 1.
V2 V5+ 8 d 0.4716(1) 0.84431(5) 0.7208(2) . 1.
O1 O2- 8 d 0.6129(4) 0.7959(2) 0.6585(9) . 1.
O2 O2- 8 d 0.3859(4) 0.8739(3) 0.4245(9) . 1.
O3 O2- 4 c 0.25 0.9940(4) 0.053(1) . 1.
O4 O2- 8 d 0.3849(4) 0.0358(3) 0.5747(9) . 1.
O5 O2- 8 d 0.5054(4) 0.9272(2) 0.9130(9) . 1.
O6 O2- 4 c 0.75 0.6531(4) 0.656(1) . 1.
O7 O2- 8 d 0.3766(4) 0.7917(3) -.0738(9) . 1.
loop_
_atom_site_aniso_label
_atom_site_aniso_type_symbol
_atom_site_aniso_beta_11
_atom_site_aniso_beta_22
_atom_site_aniso_beta_33
_atom_site_aniso_beta_12
_atom_site_aniso_beta_13
_atom_site_aniso_beta_23
Cu1 Cu2+ 0.0017(2) 0.00064(6) 0.071(2) 0 0 0.0026(6)
Cu2 Cu2+ 0.00219(9) 0.00151(4) 0.0131(5) 0 0 -.0039(2)
Fe1 Fe3+ 0.00136(6) 0.00034(2) 0.0044(3) 0.00007(7) -.0002(3) -.0002(2)
V1 V5+ 0.0026(1) 0.00082(5) 0.0083(6) 0 0 0.0006(3)
V2 V5+ 0.00191(8) 0.00067(3) 0.0073(4) 0.00039(9) -.0002(3) -.0001(3)
O1 O2- 0.0033(4) 0.0007(1) 0.013(2) 0.0003(4) 0.001(1) 0.0006(9)
O2 O2- 0.0026(4) 0.0009(1) 0.009(2) -.0005(4) -.002(1) -.0018(8)
O3 O2- 0.0044(7) 0.0013(2) 0.011(3) 0 0 -.001(1)
O4 O2- 0.0051(5) 0.0010(1) 0.011(2) -.0009(5) 0.004(2) -.0017(9)
O5 O2- 0.0025(4) 0.0009(1) 0.011(2) 0.0003(5) 0.001(1) 0.0013(9)
O6 O2- 0.0033(6) 0.0015(2) 0.012(3) 0 0 0.001(1)
O7 O2- 0.0034(4) 0.0010(2) 0.012(2) 0.0011(5) 0.002(2) -.0010(9)
#End of TTdata_202361-ICSD
#
