(C) 2022 by FIZ Karlsruhe - Leibniz Institute for Information Infrastructure.  All rights reserved.
data_247057-ICSD
_database_code_ICSD 247057
_audit_creation_date 2010-08-01
_chemical_name_common 'Trilithium chromium(III) tris(molybdate(VI))'
_chemical_formula_structural 'Li3 Cr (Mo O4)3'
_chemical_formula_sum 'Cr1 Li3 Mo3 O12'
_chemical_name_structure_type Lyonsite#Li3Fe(MoO4)3
_exptl_crystal_density_diffrn 3.96
_citation_title

;
Crystal structure and magnetic properties of Li, Cr-containing molybdates Li3
Cr (Mo O4)3, Li3 Cr (Mo O4)2 and Li1.8 Cr1.2 (Mo O4)3
;
loop_
_citation_id
_citation_journal_full
_citation_year
_citation_journal_volume
_citation_page_first
_citation_page_last
_citation_journal_id_ASTM
primary 'Journal of Solid State Chemistry' 2009 182 3262 3268 JSSCBI
loop_
_citation_author_citation_id
_citation_author_name
primary 'Sarapulova, A.'
primary 'Mikhailova, D.'
primary 'Senyshyn, A.'
primary 'Ehrenberg, H.'
_cell_length_a 5.0770(8)
_cell_length_b 10.438(2)
_cell_length_c 17.483(2)
_cell_angle_alpha 90.
_cell_angle_beta 90.
_cell_angle_gamma 90.
_cell_volume 926.49
_cell_formula_units_Z 4
_space_group_name_H-M_alt 'P n m a'
_space_group_IT_number 62
loop_
_space_group_symop_id
_space_group_symop_operation_xyz
1 'x+1/2, y, -z+1/2'
2 'x, -y+1/2, z'
3 '-x+1/2, y+1/2, z+1/2'
4 '-x, -y, -z'
5 '-x+1/2, -y, z+1/2'
6 '-x, y+1/2, -z'
7 'x+1/2, -y+1/2, -z+1/2'
8 'x, y, z'
loop_
_atom_type_symbol
_atom_type_oxidation_number
Mo6+ 6
Cr3+ 3
Li1+ 1
Cr3+ 3
Li1+ 1
O2- -2
loop_
_atom_site_label
_atom_site_type_symbol
_atom_site_symmetry_multiplicity
_atom_site_Wyckoff_symbol
_atom_site_fract_x
_atom_site_fract_y
_atom_site_fract_z
_atom_site_U_iso_or_equiv
_atom_site_occupancy
Mo1 Mo6+ 8 d 0.2776(1) 0.5252(1) 0.1565(1) 0.0108(3) 1.
Mo2 Mo6+ 4 c 0.7807(1) 0.25 0.0576(1) 0.0097(3) 1.
Cr1 Cr3+ 4 c 0.1068(6) 0.25 0.2501(2) 0.011(1) 0.383(1)
Li1 Li1+ 4 c 0.1068(6) 0.25 0.2501(2) 0.011(1) 0.617(1)
Cr2 Cr3+ 8 d 0.7562(5) 0.5695(3) 0.0250(2) 0.0162(7) 0.308(1)
Li2 Li1+ 8 d 0.7562(5) 0.5695(3) 0.0250(2) 0.0162(7) 0.692(1)
Li3 Li1+ 4 c 0.2440(30) 0.75 0.3031(9) 0.015(3) 1.
O1 O2- 4 c 0.8599(14) 0.25 0.1570(3) 0.018(1) 1.
O2 O2- 4 c 0.0565(13) 0.25 -0.0056(3) 0.018(1) 1.
O3 O2- 8 d 0.5806(8) 0.1156(4) 0.0370(2) 0.0165(9) 1.
O4 O2- 8 d 0.0792(9) 0.4873(4) 0.0748(2) 0.0166(9) 1.
O5 O2- 8 d 0.0807(9) 0.6229(4) 0.2132(2) 0.021(1) 1.
O6 O2- 8 d 0.3559(9) 0.3802(4) 0.2056(2) 0.0158(9) 1.
O7 O2- 8 d 0.5596(9) 0.6116(4) 0.1262(2) 0.0173(9) 1.
#End of TTdata_247057-ICSD
#
