(C) 2022 by FIZ Karlsruhe - Leibniz Institute for Information Infrastructure.  All rights reserved.
data_173179-ICSD
_database_code_ICSD 173179
_audit_creation_date 2008-08-01
_audit_update_record 2019-02-01
_chemical_name_common 'Lithium amide'
_chemical_formula_structural 'Li N H2'
_chemical_formula_sum 'H2 Li1 N1'
_exptl_crystal_density_diffrn 1.17
_citation_title

;
A mechanism for non-stoichiometry in the lithium amide/lithium imide hydrogen
storage reaction
;
loop_
_citation_id
_citation_journal_full
_citation_year
_citation_journal_volume
_citation_page_first
_citation_page_last
_citation_journal_id_ASTM
primary 'Journal of the American Chemical Society' 2007 129 1594 1601 JACSAT
loop_
_citation_author_citation_id
_citation_author_name
primary 'David, W.I.F.'
primary 'Jones, M.O.'
primary 'Gregory, D.H.'
primary 'Jewell, C.M.'
primary 'Johnson, S.R.'
primary 'Walton, A.'
primary 'Edwards, P.P.'
_cell_length_a 5.04309(7)
_cell_length_b 5.04309(7)
_cell_length_c 10.2262(3)
_cell_angle_alpha 90.
_cell_angle_beta 90.
_cell_angle_gamma 90.
_cell_volume 260.08
_cell_formula_units_Z 8
_space_group_name_H-M_alt 'I -4'
_space_group_IT_number 82
loop_
_space_group_symop_id
_space_group_symop_operation_xyz
1 '-y, x, -z'
2 'y, -x, -z'
3 '-x, -y, z'
4 'x, y, z'
5 '-y+1/2, x+1/2, -z+1/2'
6 'y+1/2, -x+1/2, -z+1/2'
7 '-x+1/2, -y+1/2, z+1/2'
8 'x+1/2, y+1/2, z+1/2'
loop_
_atom_type_symbol
_atom_type_oxidation_number
Li1+ 1
N3- -3
H1+ 1
loop_
_atom_site_label
_atom_site_type_symbol
_atom_site_symmetry_multiplicity
_atom_site_Wyckoff_symbol
_atom_site_fract_x
_atom_site_fract_y
_atom_site_fract_z
_atom_site_B_iso_or_equiv
_atom_site_occupancy
Li1 Li1+ 2 a 0 0 0 2.4(3) 1.
Li2 Li1+ 2 d 0 0.5 -0.25 2.4(3) 1.
Li3 Li1+ 4 f 0 0.5 0.003(4) 2.4(3) 1.
N1 N3- 8 g -0.234(2) -0.246(5) -0.1130(6) .9(2) 1.
H1 H1+ 8 g -0.23(2) -0.18(2) -0.194(9) .9(2) 1.
H2 H1+ 8 g -0.37(2) -0.35(2) -0.118(2) .9(2) 1.
#End of TTdata_173179-ICSD
#
