(C) 2022 by FIZ Karlsruhe - Leibniz Institute for Information Infrastructure.  All rights reserved.
data_156901-ICSD
_database_code_ICSD 156901
_audit_creation_date 2008-02-01
_chemical_name_common 'Trilithium nitride - beta'
_chemical_formula_structural 'Li3 N'
_chemical_formula_sum 'Li3 N1'
_chemical_name_structure_type Na3As
_exptl_crystal_density_diffrn 1.63
_diffrn_ambient_temperature 573.
_citation_title 'Structural studies of Li3 N using neutron powder diffraction'
loop_
_citation_id
_citation_journal_full
_citation_year
_citation_journal_volume
_citation_page_first
_citation_page_last
_citation_journal_id_ASTM
primary 'Journal of Alloys and Compounds' 2007 436 256 260 JALCEU
loop_
_citation_author_citation_id
_citation_author_name
primary 'Huq, A.'
primary 'Richardson, J.W.jr.'
primary 'Maxey, E.R.'
primary 'Chandra, D.'
primary 'Chien Wenming'
_cell_length_a 3.58864(20)
_cell_length_b 3.58864(20)
_cell_length_c 6.3727(7)
_cell_angle_alpha 90.
_cell_angle_beta 90.
_cell_angle_gamma 120.
_cell_volume 71.07
_cell_formula_units_Z 2
_space_group_name_H-M_alt 'P 63/m m c'
_space_group_IT_number 194
loop_
_space_group_symop_id
_space_group_symop_operation_xyz
1 'x, x-y, -z+1/2'
2 '-x+y, y, -z+1/2'
3 '-y, -x, -z+1/2'
4 '-x+y, -x, -z+1/2'
5 '-y, x-y, -z+1/2'
6 'x, y, -z+1/2'
7 '-x, -x+y, z+1/2'
8 'x-y, -y, z+1/2'
9 'y, x, z+1/2'
10 'x-y, x, z+1/2'
11 'y, -x+y, z+1/2'
12 '-x, -y, z+1/2'
13 '-x, -x+y, -z'
14 'x-y, -y, -z'
15 'y, x, -z'
16 'x-y, x, -z'
17 'y, -x+y, -z'
18 '-x, -y, -z'
19 'x, x-y, z'
20 '-x+y, y, z'
21 '-y, -x, z'
22 '-x+y, -x, z'
23 '-y, x-y, z'
24 'x, y, z'
loop_
_atom_type_symbol
_atom_type_oxidation_number
Li1+ 1
N3- -3
loop_
_atom_site_label
_atom_site_type_symbol
_atom_site_symmetry_multiplicity
_atom_site_Wyckoff_symbol
_atom_site_fract_x
_atom_site_fract_y
_atom_site_fract_z
_atom_site_B_iso_or_equiv
_atom_site_occupancy
Li1 Li1+ 2 b 0 0 0.25 . 1.
Li2 Li1+ 4 f 0.3333 0.6667 0.578 . 1.
N1 N3- 2 c 0.3333 0.6667 0.25 . 1.
loop_
_atom_site_aniso_label
_atom_site_aniso_type_symbol
_atom_site_aniso_U_11
_atom_site_aniso_U_22
_atom_site_aniso_U_33
_atom_site_aniso_U_12
_atom_site_aniso_U_13
_atom_site_aniso_U_23
Li1 Li1+ 0.0193(14) 0.0193(14) -0.0028(48) 0.0096(7) 0. 0.
Li2 Li1+ 0.0400(42) 0.0400(42) 0.0221(42) 0.0200(21) 0. 0.
N1 N3- 0.0097(14) 0.0097(14) 0.0151(14) 0.0049(7) 0. 0.
#End of TTdata_156901-ICSD
#
