(C) 2022 by FIZ Karlsruhe - Leibniz Institute for Information Infrastructure.  All rights reserved.
data_259323-ICSD
_database_code_ICSD 259323
_audit_creation_date 2018-08-01
_chemical_name_common 'Lithium nickel(I/II) nitride (2/0.67/1)'
_chemical_formula_structural 'Li1.67 (Ni0.67 Li0.33) N'
_chemical_formula_sum 'Li2 N1 Ni0.67'
_chemical_name_structure_type Li3N
_exptl_crystal_density_diffrn 2.58
_citation_title

;
Li2.0Ni0.67N, a promising negative electrode material for Li-ion batteries
with a soft structural response
;
loop_
_citation_id
_citation_journal_full
_citation_year
_citation_journal_volume
_citation_page_first
_citation_page_last
_citation_journal_id_ASTM
primary 'Inorganic Chemistry' 2017 56 13815 13821 INOCAJ
loop_
_citation_author_citation_id
_citation_author_name
primary 'Cavoue, Thomas'
primary 'Emery, Nicolas'
primary 'Umirov, Nurzhan'
primary 'Bach, Stephane'
primary 'Berger, Pascal'
primary 'Bakenov, Zhumabay'
primary 'Cenac-Morthe, Celine'
primary 'Pereira-Ramos, Jean-Pierre'
_cell_length_a 3.760(1)
_cell_length_b 3.760(1)
_cell_length_c 3.538(1)
_cell_angle_alpha 90.
_cell_angle_beta 90.
_cell_angle_gamma 120.
_cell_volume 43.32
_cell_formula_units_Z 1
_space_group_name_H-M_alt 'P 6/m m m'
_space_group_IT_number 191
loop_
_space_group_symop_id
_space_group_symop_operation_xyz
1 '-x, -x+y, -z'
2 'x-y, -y, -z'
3 'y, x, -z'
4 '-x+y, -x, -z'
5 '-y, x-y, -z'
6 'x, y, -z'
7 'x, x-y, -z'
8 '-x+y, y, -z'
9 '-y, -x, -z'
10 'x-y, x, -z'
11 'y, -x+y, -z'
12 '-x, -y, -z'
13 'x, x-y, z'
14 '-x+y, y, z'
15 '-y, -x, z'
16 'x-y, x, z'
17 'y, -x+y, z'
18 '-x, -y, z'
19 '-x, -x+y, z'
20 'x-y, -y, z'
21 'y, x, z'
22 '-x+y, -x, z'
23 '-y, x-y, z'
24 'x, y, z'
loop_
_atom_type_symbol
_atom_type_oxidation_number
Ni1+ 1.493
Li1+ 1
N3- -3
Li1+ 1
loop_
_atom_site_label
_atom_site_type_symbol
_atom_site_symmetry_multiplicity
_atom_site_Wyckoff_symbol
_atom_site_fract_x
_atom_site_fract_y
_atom_site_fract_z
_atom_site_B_iso_or_equiv
_atom_site_occupancy
Ni1 Ni1+ 1 b 0 0 0.5 . 0.67
Li1 Li1+ 1 b 0 0 0.5 . 0.33
N1 N3- 1 a 0 0 0 . 1.
Li2 Li1+ 2 c 0.3333 0.6667 0 . 0.835
#End of TTdata_259323-ICSD
#
