(C) 2022 by FIZ Karlsruhe - Leibniz Institute for Information Infrastructure.  All rights reserved.
data_409444-ICSD
_database_code_ICSD 409444
_audit_creation_date 1999-11-30
_chemical_name_common 'Lithium manganese(I) nitride (2.27/0.73/1)'
_chemical_formula_structural 'Li2 ((Li.27 Mn0.73) N)'
_chemical_formula_sum 'Li2.27 Mn0.73 N1'
_chemical_name_structure_type Li3N
_exptl_crystal_density_diffrn 2.52
_citation_title

;
Crystal structure of dilithium (nitridolithiate/manganate, (I)), Li2 ((Li(1-x)
Mn(x)) N), x= 0.73
;
loop_
_citation_id
_citation_journal_full
_citation_year
_citation_journal_volume
_citation_page_first
_citation_page_last
_citation_journal_id_ASTM
primary 'Zeitschrift fuer Kristallographie - New Crystal Structures' 1999 214
445 446 ZKNSFT
loop_
_citation_author_citation_id
_citation_author_name
primary 'Klatyk, J.'
primary 'Kniep, R.'
_cell_length_a 3.7263(4)
_cell_length_b 3.7263(4)
_cell_length_c 3.8281(4)
_cell_angle_alpha 90.
_cell_angle_beta 90.
_cell_angle_gamma 120.
_cell_volume 46.03
_cell_formula_units_Z 1
_space_group_name_H-M_alt 'P 6/m m m'
_space_group_IT_number 191
loop_
_space_group_symop_id
_space_group_symop_operation_xyz
1 '-x, -x+y, -z'
2 'x-y, -y, -z'
3 'y, x, -z'
4 '-x+y, -x, -z'
5 '-y, x-y, -z'
6 'x, y, -z'
7 'x, x-y, -z'
8 '-x+y, y, -z'
9 '-y, -x, -z'
10 'x-y, x, -z'
11 'y, -x+y, -z'
12 '-x, -y, -z'
13 'x, x-y, z'
14 '-x+y, y, z'
15 '-y, -x, z'
16 'x-y, x, z'
17 'y, -x+y, z'
18 '-x, -y, z'
19 '-x, -x+y, z'
20 'x-y, -y, z'
21 'y, x, z'
22 '-x+y, -x, z'
23 '-y, x-y, z'
24 'x, y, z'
loop_
_atom_type_symbol
_atom_type_oxidation_number
Mn1+ 1
Li1+ 1
N3- -3
Li1+ 1
loop_
_atom_site_label
_atom_site_type_symbol
_atom_site_symmetry_multiplicity
_atom_site_Wyckoff_symbol
_atom_site_fract_x
_atom_site_fract_y
_atom_site_fract_z
_atom_site_B_iso_or_equiv
_atom_site_occupancy
Mn1 Mn1+ 1 b 0 0 0.5 . 0.73
Li1 Li1+ 1 b 0 0 0.5 . 0.27
N1 N3- 1 a 0 0 0 . 1.
Li2 Li1+ 2 c 0.3333 0.6667 0 . 1.
loop_
_atom_site_aniso_label
_atom_site_aniso_type_symbol
_atom_site_aniso_U_11
_atom_site_aniso_U_22
_atom_site_aniso_U_33
_atom_site_aniso_U_12
_atom_site_aniso_U_13
_atom_site_aniso_U_23
Mn1 Mn1+ 0.0305(6) 0.0305(6) 0.0081(6) 0.0153(3) 0 0
Li1 Li1+ 0.0305(6) 0.0305(6) 0.0081(6) 0.0153(3) 0 0
N1 N3- 0.0188(16) 0.0188(16) 0.009(2) 0.0094(8) 0 0
Li2 Li1+ 0.047(4) 0.047(4) 0.040(6) 0.024(2) 0 0
#End of TTdata_409444-ICSD
#
