(C) 2022 by FIZ Karlsruhe - Leibniz Institute for Information Infrastructure.  All rights reserved.
data_420676-ICSD
_database_code_ICSD 420676
_audit_creation_date 2013-02-01
_audit_update_record 2016-08-01
_chemical_name_common 'Lithium tricalcium pentanitridodisilicate'
_chemical_formula_structural 'Li Ca3 Si2 N5'
_chemical_formula_sum 'Ca3 Li1 N5 Si2'
_exptl_crystal_density_diffrn 3.1
_diffrn_ambient_temperature 140.
_citation_title
'Li Ca3 Si2 N5 - a lithium nitridosilicate with a [Si2 N5]7- double-chain'
loop_
_citation_id
_citation_journal_full
_citation_year
_citation_journal_volume
_citation_page_first
_citation_page_last
_citation_journal_id_ASTM
primary 'Zeitschrift fuer Anorganische und Allgemeine Chemie (1950) (DE)' 2012
638 2015 2019 ZAACAB
loop_
_citation_author_citation_id
_citation_author_name
primary 'Lupart, S.'
primary 'Schnick, W.'
_cell_length_a 5.1454(10)
_cell_length_b 20.380(4)
_cell_length_c 10.357(2)
_cell_angle_alpha 90.
_cell_angle_beta 91.24(3)
_cell_angle_gamma 90.
_cell_volume 1085.81
_cell_formula_units_Z 8
_space_group_name_H-M_alt 'C 1 2/c 1'
_space_group_IT_number 15
loop_
_space_group_symop_id
_space_group_symop_operation_xyz
1 'x, -y, z+1/2'
2 '-x, -y, -z'
3 '-x, y, -z+1/2'
4 'x, y, z'
5 'x+1/2, -y+1/2, z+1/2'
6 '-x+1/2, -y+1/2, -z'
7 '-x+1/2, y+1/2, -z+1/2'
8 'x+1/2, y+1/2, z'
loop_
_atom_type_symbol
_atom_type_oxidation_number
Ca2+ 2
Si4+ 4
N3- -3
Li1+ 1
loop_
_atom_site_label
_atom_site_type_symbol
_atom_site_symmetry_multiplicity
_atom_site_Wyckoff_symbol
_atom_site_fract_x
_atom_site_fract_y
_atom_site_fract_z
_atom_site_U_iso_or_equiv
_atom_site_occupancy
Ca1 Ca2+ 8 f 0.2459(2) 0.21532(5) 0.64521(10) 0.0056(3) 1
Ca2 Ca2+ 8 f 0.2547(2) 0.09059(5) 0.85578(10) 0.0064(3) 1
Ca3 Ca2+ 8 f 0.7514(2) -0.01884(6) 0.86822(11) 0.0093(3) 1
Si1 Si4+ 8 f 0.2030(3) 0.10486(6) 0.46178(13) 0.0033(3) 1
Si2 Si4+ 8 f -0.1913(3) 0.30340(7) 0.54776(14) 0.0058(4) 1
N1 N3- 8 f 0.2696(10) 0.2255(2) 0.8838(4) 0.0061(9) 1
N2 N3- 8 f 0.8718(9) 0.1277(2) 0.4222(4) 0.0085(9) 1
N3 N3- 8 f 0.7333(10) -0.0332(2) 0.6223(5) 0.0088(10) 1
N4 N3- 8 f 0.2384(9) 0.0976(2) 0.6295(4) 0.0062(9) 1
N5 N3- 8 f 0.1316(9) 0.3236(2) 0.5876(4) 0.0087(9) 1
Li1 Li1+ 4 e 0.5 0.3448(9) 0.75 0.030(4) 1
Li2 Li1+ 4 e 0. 0.3723(8) 0.75 0.022(3) 1
loop_
_atom_site_aniso_label
_atom_site_aniso_type_symbol
_atom_site_aniso_U_11
_atom_site_aniso_U_22
_atom_site_aniso_U_33
_atom_site_aniso_U_12
_atom_site_aniso_U_13
_atom_site_aniso_U_23
Ca1 Ca2+ 0.0082(5) 0.0039(5) 0.0045(5) 0.0000(4) -0.0004(4) 0.0008(4)
Ca2 Ca2+ 0.0088(5) 0.0060(5) 0.0042(5) 0.0000(4) -0.0007(4) 0.0007(4)
Ca3 Ca2+ 0.0117(6) 0.0056(5) 0.0104(5) -0.0002(4) -0.0028(4) 0.0013(4)
Si1 Si4+ 0.0031(7) 0.0035(6) 0.0033(6) -0.0002(5) 0.0005(5) -0.0003(5)
Si2 Si4+ 0.0068(7) 0.0050(7) 0.0057(7) 0.0001(5) 0.0006(6) 0.0002(5)
N1 N3- 0.010(2) 0.004(2) 0.005(2) 0.0014(17) 0.0019(18) 0.0010(16)
N2 N3- 0.007(2) 0.010(2) 0.009(2) 0.0028(19) -0.0009(18) 0.0001(18)
N3 N3- 0.010(2) 0.008(2) 0.007(2) 0.0009(18) -0.0006(19) -0.0036(17)
N4 N3- 0.008(2) 0.007(2) 0.004(2) 0.0001(19) -0.0008(17) 0.0008(17)
N5 N3- 0.008(2) 0.009(2) 0.010(2) -0.0003(18) 0.0020(18) -0.0021(18)
#End of TTdata_420676-ICSD
#
