(C) 2022 by FIZ Karlsruhe - Leibniz Institute for Information Infrastructure.  All rights reserved.
data_173175-ICSD
_database_code_ICSD 173175
_audit_creation_date 2008-08-01
_audit_update_record 2019-02-01
_chemical_name_common 'Lithium nitride'
_chemical_formula_structural 'Li3 N'
_chemical_formula_sum 'Li3 N1'
_chemical_name_structure_type Li3N
_exptl_crystal_density_diffrn 1.29
_citation_title

;
A mechanism for non-stoichiometry in the lithium amide/lithium imide hydrogen
storage reaction
;
loop_
_citation_id
_citation_journal_full
_citation_year
_citation_journal_volume
_citation_page_first
_citation_page_last
_citation_journal_id_ASTM
primary 'Journal of the American Chemical Society' 2007 129 1594 1601 JACSAT
loop_
_citation_author_citation_id
_citation_author_name
primary 'David, W.I.F.'
primary 'Jones, M.O.'
primary 'Gregory, D.H.'
primary 'Jewell, C.M.'
primary 'Johnson, S.R.'
primary 'Walton, A.'
primary 'Edwards, P.P.'
_cell_length_a 3.6529(2)
_cell_length_b 3.6529(2)
_cell_length_c 3.8736(2)
_cell_angle_alpha 90.
_cell_angle_beta 90.
_cell_angle_gamma 120.
_cell_volume 44.76
_cell_formula_units_Z 1
_space_group_name_H-M_alt 'P 6/m m m'
_space_group_IT_number 191
loop_
_space_group_symop_id
_space_group_symop_operation_xyz
1 '-x, -x+y, -z'
2 'x-y, -y, -z'
3 'y, x, -z'
4 '-x+y, -x, -z'
5 '-y, x-y, -z'
6 'x, y, -z'
7 'x, x-y, -z'
8 '-x+y, y, -z'
9 '-y, -x, -z'
10 'x-y, x, -z'
11 'y, -x+y, -z'
12 '-x, -y, -z'
13 'x, x-y, z'
14 '-x+y, y, z'
15 '-y, -x, z'
16 'x-y, x, z'
17 'y, -x+y, z'
18 '-x, -y, z'
19 '-x, -x+y, z'
20 'x-y, -y, z'
21 'y, x, z'
22 '-x+y, -x, z'
23 '-y, x-y, z'
24 'x, y, z'
loop_
_atom_type_symbol
_atom_type_oxidation_number
Li1+ 1
N3- -3
loop_
_atom_site_label
_atom_site_type_symbol
_atom_site_symmetry_multiplicity
_atom_site_Wyckoff_symbol
_atom_site_fract_x
_atom_site_fract_y
_atom_site_fract_z
_atom_site_B_iso_or_equiv
_atom_site_occupancy
Li1 Li1+ 1 b 0 0 0.5 19(1) 1.
Li2 Li1+ 2 c 0.3333 0.6667 0 19(1) 1.
N1 N3- 1 a 0 0 0 .8(6) 1.
#End of TTdata_173175-ICSD
#
