(C) 2022 by FIZ Karlsruhe - Leibniz Institute for Information Infrastructure.  All rights reserved.
data_239349-ICSD
_database_code_ICSD 239349
_audit_creation_date 2016-08-01
_chemical_name_common 'Magnesium gallium boron nitride (3.3/0.437/1/4)'
_chemical_formula_structural 'Mg3.3 Ga0.437 (B N2) N2'
_chemical_formula_sum 'B1 Ga0.437 Mg3.3 N4'
_exptl_crystal_density_diffrn 2.69
_diffrn_ambient_temperature 298.
_citation_title
'Defect-related luminescence in nitridoborate nitride, Mg3 Ga (B N2) N2'
loop_
_citation_id
_citation_journal_full
_citation_year
_citation_journal_volume
_citation_page_first
_citation_page_last
_citation_journal_id_ASTM
primary 'European Journal of Inorganic Chemistry' 2016 2016 861 866 EJICFO
loop_
_citation_author_citation_id
_citation_author_name
primary 'Dutczak, Danuta'
primary 'Wurst, Kai Matthias'
primary 'Stroebele, Markus'
primary 'Enseling, David'
primary 'Juestel, Thomas'
primary 'Meyer, H. Juergen'
_cell_length_a 3.456047(18)
_cell_length_b 3.456047(18)
_cell_length_c 31.7294(2)
_cell_angle_alpha 90.
_cell_angle_beta 90.
_cell_angle_gamma 120.
_cell_volume 328.2
_cell_formula_units_Z 3
_space_group_name_H-M_alt 'R -3 m H'
_space_group_IT_number 166
loop_
_space_group_symop_id
_space_group_symop_operation_xyz
1 'x-y, -y, -z'
2 '-x, -x+y, -z'
3 'y, x, -z'
4 'x-y, x, -z'
5 'y, -x+y, -z'
6 '-x, -y, -z'
7 '-x+y, y, z'
8 'x, x-y, z'
9 '-y, -x, z'
10 '-x+y, -x, z'
11 '-y, x-y, z'
12 'x, y, z'
13 'x-y+2/3, -y+1/3, -z+1/3'
14 '-x+2/3, -x+y+1/3, -z+1/3'
15 'y+2/3, x+1/3, -z+1/3'
16 'x-y+2/3, x+1/3, -z+1/3'
17 'y+2/3, -x+y+1/3, -z+1/3'
18 '-x+2/3, -y+1/3, -z+1/3'
19 '-x+y+2/3, y+1/3, z+1/3'
20 'x+2/3, x-y+1/3, z+1/3'
21 '-y+2/3, -x+1/3, z+1/3'
22 '-x+y+2/3, -x+1/3, z+1/3'
23 '-y+2/3, x-y+1/3, z+1/3'
24 'x+2/3, y+1/3, z+1/3'
25 'x-y+1/3, -y+2/3, -z+2/3'
26 '-x+1/3, -x+y+2/3, -z+2/3'
27 'y+1/3, x+2/3, -z+2/3'
28 'x-y+1/3, x+2/3, -z+2/3'
29 'y+1/3, -x+y+2/3, -z+2/3'
30 '-x+1/3, -y+2/3, -z+2/3'
31 '-x+y+1/3, y+2/3, z+2/3'
32 'x+1/3, x-y+2/3, z+2/3'
33 '-y+1/3, -x+2/3, z+2/3'
34 '-x+y+1/3, -x+2/3, z+2/3'
35 '-y+1/3, x-y+2/3, z+2/3'
36 'x+1/3, y+2/3, z+2/3'
loop_
_atom_type_symbol
_atom_type_oxidation_number
N3- -2.7
B3+ 3
Mg2+ 2
Ga3+ 3
Mg2+ 2
loop_
_atom_site_label
_atom_site_type_symbol
_atom_site_symmetry_multiplicity
_atom_site_Wyckoff_symbol
_atom_site_fract_x
_atom_site_fract_y
_atom_site_fract_z
_atom_site_U_iso_or_equiv
_atom_site_occupancy
N1 N3- 6 c 0. 0. 0.45714(10) 0.044(3) 1.00002
N2 N3- 6 c 0. 0. 0.29404(10) 0.034(2) 1.00002
B1 B3+ 3 b 0. 0. 0.5 0.048(6) 0.99996
Mg1 Mg2+ 6 c 0. 0. 0.36301(3) 0.0219(8) 0.782(5)
Ga1 Ga3+ 6 c 0. 0. 0.36301(3) 0.0219(8) 0.218(5)
Mg2 Mg2+ 6 c 0. 0. 0.22981(4) 0.0238(12) 0.868(5)
loop_
_atom_site_aniso_label
_atom_site_aniso_type_symbol
_atom_site_aniso_U_11
_atom_site_aniso_U_22
_atom_site_aniso_U_33
_atom_site_aniso_U_12
_atom_site_aniso_U_13
_atom_site_aniso_U_23
N1 N3- 0.040(2) 0.040(2) 0.051(4) 0.020(2) 0. 0.
N2 N3- 0.0338(19) 0.0338(19) 0.034(4) 0.0169(19) 0. 0.
B1 B3+ 0.025(5) 0.025(5) 0.092(10) 0.013(5) 0. 0.
Mg1 Mg2+ 0.0195(7) 0.0195(7) 0.0269(10) 0.0097(7) 0. 0.
Ga1 Ga3+ 0.0195(7) 0.0195(7) 0.0269(10) 0.0097(7) 0. 0.
Mg2 Mg2+ 0.0237(10) 0.0237(10) 0.0239(15) 0.0118(10) 0. 0.
#End of TTdata_239349-ICSD
#
