(C) 2022 by FIZ Karlsruhe - Leibniz Institute for Information Infrastructure.  All rights reserved.
data_432318-ICSD
_database_code_ICSD 432318
_audit_creation_date 2017-08-01
_chemical_name_common 'Lithium nitrido boro phosphate'
_chemical_formula_structural 'Li141 N126 B9 P42'
_chemical_formula_sum 'B9 Li141 N126 P42'
_exptl_crystal_density_diffrn 2.37
_diffrn_ambient_temperature 100.
_citation_title

;
Li47B3P14N42. A lithium nitridoborophosphate with [P3N9]12-, [P4N10]10-, and
the unprecedented [B3P3N13]15- ion
;
loop_
_citation_id
_citation_journal_full
_citation_year
_citation_journal_volume
_citation_page_first
_citation_page_last
_citation_journal_id_ASTM
primary 'Angewandte Chemie, International Edition' 2017 56 4806 4809 ACIEF5
loop_
_citation_author_citation_id
_citation_author_name
primary 'Bertschler, Eva-Maria'
primary 'Braeuniger, Thomas'
primary 'Dietrich, Christian'
primary 'Janek, Juergen'
primary 'Schnick, Wolfgang'
_cell_length_a 19.3036(7)
_cell_length_b 19.3036(7)
_cell_length_c 18.0200(7)
_cell_angle_alpha 90
_cell_angle_beta 90
_cell_angle_gamma 120
_cell_volume 5815.16
_cell_formula_units_Z 2
_space_group_name_H-M_alt 'P 3 c 1'
_space_group_IT_number 158
loop_
_space_group_symop_id
_space_group_symop_operation_xyz
1 'x, x-y, z+1/2'
2 '-x+y, y, z+1/2'
3 '-y, -x, z+1/2'
4 '-x+y, -x, z'
5 '-y, x-y, z'
6 'x, y, z'
loop_
_atom_type_symbol
_atom_type_oxidation_number
P5+ 5
N3- -3
P5+ 5
N3- -3
P5+ 5
B3+ 3
N3- -3
P5+ 5
B3+ 3
N3- -3
P5+ 5
B3+ 3
N3- -3
P5+ 5
N3- -3
P5+ 5
N3- -3
P5+ 5
N3- -3
Li1+ 1
loop_
_atom_site_label
_atom_site_type_symbol
_atom_site_symmetry_multiplicity
_atom_site_Wyckoff_symbol
_atom_site_fract_x
_atom_site_fract_y
_atom_site_fract_z
_atom_site_U_iso_or_equiv
_atom_site_occupancy
P1 P5+ 6 d 0.3260(6) 0.3283(5) 0.2784(3) 0.0030(3) 1
P2 P5+ 6 d 0.3244(7) 0.2407(7) 0.1502(6) 0.0030(3) 1
P3 P5+ 6 d 0.2405(7) 0.3250(7) 0.1507(6) 0.0030(3) 1
P4 P5+ 6 d 0.4105(6) 0.4104(5) 0.1460(4) 0.0030(3) 1
N1 N3- 6 d 0.3325(18) 0.3320(19) 0.3693(12) 0.007(3) 1
N2 N3- 6 d 0.330(2) 0.164(2) 0.1285(17) 0.007(3) 1
N3 N3- 6 d 0.163(2) 0.322(2) 0.1278(17) 0.007(3) 1
N4 N3- 6 d 0.007(2) 0.5175(17) 0.1177(13) 0.007(3) 1
N5 N3- 6 d 0.3225(18) 0.2425(17) 0.2427(16) 0.0032(8) 1
N6 N3- 6 d 0.2455(18) 0.328(2) 0.2445(16) 0.0032(8) 1
N7 N3- 6 d 0.4094(17) 0.4079(17) 0.2391(13) 0.0032(8) 1
N8 N3- 6 d 0.2457(14) 0.2389(15) 0.1226(11) 0.0032(8) 1
N9 N3- 6 d 0.321(2) 0.406(2) 0.1182(16) 0.0032(8) 1
N10 N3- 6 d 0.4084(19) 0.327(2) 0.1195(16) 0.0032(8) 1
P5 P5+ 6 d 0.0844(7) 0.3401(7) 0.3950(5) 0.0030(3) 1
P6 P5+ 6 d 0.3408(7) 0.0852(7) 0.3939(5) 0.0030(3) 1
P7 P5+ 6 d 0.0008(9) 0.4261(6) 0.3931(4) 0.0030(3) 1
P8 P5+ 6 d 0.3390(6) -0.0002(9) 0.2635(3) 0.0030(3) 1
N11 N3- 6 d 0.2628(15) 0.002(2) 0.4245(12) 0.0032(8) 1
N12 N3- 6 d 0.4193(18) 0.0769(18) 0.4219(16) 0.0032(8) 1
N13 N3- 6 d 0.0826(19) 0.4212(18) 0.4244(15) 0.0032(8) 1
N14 N3- 6 d 0.3437(19) 0.1640(19) 0.4234(16) 0.004(3) 1
N15 N3- 6 d 0.0080(19) 0.5087(16) 0.4217(12) 0.004(3) 1
N16 N3- 6 d 0.1619(18) 0.3370(19) 0.4273(15) 0.004(3) 1
N17 N3- 6 d 0.0783(18) 0.3439(18) 0.3018(17) 0.0032(8) 1
N18 N3- 6 d 0.005(2) 0.4209(16) 0.2967(13) 0.0032(8) 1
N19 N3- 6 d 0.001(2) 0.3343(18) 0.1813(11) 0.004(3) 1
N20 N3- 6 d 0.340(2) 0.0825(18) 0.3017(16) 0.0032(8) 1
P9 P5+ 6 d 0.1602(7) 0.1587(7) 0.4842(5) 0.0161(6) 1
B1 B3+ 6 d 0.078(2) 0.075(2) 0.0069(18) 0.004(2) 1
N21 N3- 2 a 0. 0. 0.000(2) 0.004(3) 1
N22 N3- 6 d 0.002(3) 0.230(2) 0.0236(12) 0.0143(15) 1
N23 N3- 6 d 0.1505(19) 0.0805(19) 0.0093(18) 0.0039(11) 1
N24 N3- 6 d 0.1642(18) 0.1583(19) 0.3947(15) 0.0143(15) 1
N25 N3- 6 d 0.081(2) 0.157(2) 0.0139(16) 0.0039(11) 1
P10 P5+ 6 d 0.5091(7) 0.1747(7) 0.0540(7) 0.0161(6) 1
B2 B3+ 6 d 0.588(3) 0.334(3) 0.032(2) 0.004(2) 1
N26 N3- 6 d 0.434(2) 0.098(2) 0.0252(17) 0.0143(15) 1
N27 N3- 6 d 0.595(2) 0.1796(19) 0.0258(19) 0.0039(11) 1
N28 N3- 2 c 0.6667 0.3333 0.030(3) 0.004(3) 1
N29 N3- 6 d 0.514(2) 0.259(2) 0.0344(17) 0.0039(11) 1
N30 N3- 6 d 0.5110(19) 0.170(2) 0.1478(19) 0.0143(15) 1
P11 P5+ 6 d 0.1750(7) 0.5088(7) 0.0546(7) 0.0161(6) 1
B3 B3+ 6 d 0.332(2) 0.591(3) 0.029(2) 0.004(2) 1
N31 N3- 6 d 0.099(2) 0.433(2) 0.0209(17) 0.0143(15) 1
N32 N3- 6 d 0.182(2) 0.591(2) 0.0295(19) 0.0039(11) 1
N33 N3- 2 b 0.3333 0.6667 0.029(3) 0.004(3) 1
N34 N3- 6 d 0.2570(18) 0.5150(19) 0.0281(17) 0.0039(11) 1
N35 N3- 6 d 0.163(2) 0.4963(18) 0.1485(17) 0.0143(15) 1
P12 P5+ 6 d 0.0027(8) 0.0897(6) 0.2358(4) 0.0113(5) 1
N36 N3- 6 d 0.1617(19) 0.003(3) 0.1960(13) 0.021(2) 1
N37 N3- 6 d 0.1069(16) 0.0227(16) 0.3236(16) 0.021(2) 1
N38 N3- 6 d 0.0821(18) 0.0817(17) 0.2186(13) 0.013(2) 1
P13 P5+ 6 d 0.5770(7) 0.3308(8) 0.3048(6) 0.0113(5) 1
N39 N3- 6 d 0.5887(15) 0.2529(16) 0.3462(12) 0.013(2) 1
N40 N3- 6 d 0.5077(19) 0.3348(19) 0.3568(17) 0.021(2) 1
N41 N3- 6 d 0.5654(16) 0.3426(18) 0.2170(15) 0.021(2) 1
P14 P5+ 6 d 0.3307(7) 0.5760(7) 0.3066(6) 0.0113(5) 1
N42 N3- 6 d 0.2508(18) 0.5883(18) 0.3223(16) 0.013(2) 1
N43 N3- 6 d 0.321(2) 0.5013(19) 0.3479(17) 0.021(2) 1
N44 N3- 6 d 0.3073(16) 0.5492(16) 0.2154(16) 0.021(2) 1
Li1 Li1+ 2 a 0. 0. 0.137(6) 0.0319(16) 1
Li2 Li1+ 6 d 0.457(4) 0.327(6) 0.030(4) 0.0319(16) 1
Li3 Li1+ 6 d 0.070(5) 0.190(5) 0.405(5) 0.0319(16) 1
Li4 Li1+ 6 d 0.219(4) 0.625(4) 0.218(3) 0.0319(16) 1
Li5 Li1+ 6 d 0.061(5) 0.513(5) 0.016(3) 0.0319(16) 1
Li6 Li1+ 6 d 0.092(3) 0.095(3) 0.343(3) 0.0319(16) 1
Li7 Li1+ 6 d 0.099(4) 0.168(4) 0.138(4) 0.0319(16) 1
Li8 Li1+ 6 d 0.159(4) 0.558(4) 0.408(4) 0.0319(16) 1
Li9 Li1+ 6 d 0.530(3) 0.022(3) 0.308(3) 0.0319(16) 1
Li10 Li1+ 2 c 0.6667 0.3333 0.414(6) 0.0319(16) 1
Li11 Li1+ 6 d 0.247(4) 0.590(4) 0.199(3) 0.0319(16) 1
Li12 Li1+ 6 d 0.374(5) 0.441(5) 0.421(5) 0.0319(16) 1
Li13 Li1+ 6 d 0.212(3) 0.383(4) 0.319(3) 0.0319(16) 1
Li14 Li1+ 6 d 0.192(4) 0.090(4) 0.119(3) 0.0319(16) 1
Li15 Li1+ 6 d 0.461(4) 0.334(4) 0.254(4) 0.0319(16) 1
Li16 Li1+ 6 d 0.144(5) 0.590(4) 0.145(4) 0.0319(16) 1
Li17 Li1+ 6 d 0.195(5) 0.201(5) 0.023(2) 0.0319(16) 1
Li18 Li1+ 6 d 0.227(4) 0.281(4) 0.417(3) 0.0319(16) 1
Li19 Li1+ 6 d 0.191(4) 0.183(4) 0.277(2) 0.0319(16) 1
Li20 Li1+ 6 d 0.468(5) 0.133(5) 0.302(4) 0.0319(16) 1
Li21 Li1+ 6 d 0.150(5) 0.480(5) 0.302(4) 0.0319(16) 1
Li22 Li1+ 6 d 0.333(5) 0.338(6) 0.017(3) 0.0319(16) 1
Li23 Li1+ 6 d 0.201(5) 0.090(5) 0.417(4) 0.0319(16) 1
Li24 Li1+ 6 d 0.377(3) 0.070(3) 0.049(3) 0.0319(16) 1
Li25 Li1+ 6 d 0.436(3) 0.018(3) 0.033(2) 0.0319(16) 1
Li26 Li1+ 6 d 0.478(4) 0.261(4) 0.148(4) 0.0319(16) 1
Li27 Li1+ 6 d 0.386(4) 0.183(5) 0.026(3) 0.0319(16) 1
Li28 Li1+ 6 d 0.032(4) 0.256(4) 0.133(3) 0.0319(16) 1
Li29 Li1+ 6 d 0.215(4) 0.012(4) 0.297(3) 0.0319(16) 1
Li30 Li1+ 6 d 0.392(4) 0.105(4) 0.140(3) 0.0319(16) 1
Li31 Li1+ 6 d 0.320(4) 0.462(5) 0.021(4) 0.0319(16) 1
Li32 Li1+ 6 d 0.103(3) 0.279(4) 0.228(3) 0.0319(16) 1
Li33 Li1+ 6 d 0.308(3) 0.031(3) 0.052(3) 0.0319(16) 1
Li34 Li1+ 6 d 0.250(4) 0.465(5) 0.145(4) 0.0319(16) 1
Li35 Li1+ 6 d 0.585(4) 0.128(4) 0.142(4) 0.0319(16) 1
Li36 Li1+ 6 d 0.010(6) 0.337(4) 0.0009(18) 0.0319(16) 1
Li37 Li1+ 2 b 0.3333 0.6667 0.429(6) 0.0319(16) 1
Li38 Li1+ 6 d 0.128(4) 0.341(4) 0.025(3) 0.0319(16) 1
Li39 Li1+ 6 d 0.415(3) 0.023(3) 0.108(3) 0.0319(16) 1
Li40 Li1+ 6 d 0.595(4) 0.265(4) 0.187(3) 0.0319(16) 1
Li41 Li1+ 6 d 0.256(3) 0.456(3) 0.440(3) 0.0319(16) 1
Li42 Li1+ 6 d 0.294(4) 0.225(4) 0.399(3) 0.0319(16) 1
Li43 Li1+ 6 d 0.341(4) 0.476(4) 0.274(3) 0.0319(16) 1
Li44 Li1+ 6 d 0.574(4) 0.153(4) 0.417(3) 0.0319(16) 1
Li45 Li1+ 6 d 0.439(4) 0.363(5) 0.406(4) 0.0319(16) 1
Li46 Li1+ 6 d 0.120(5) 0.271(5) 0.024(3) 0.0319(16) 1
Li47 Li1+ 6 d 0.381(4) 0.230(4) 0.334(3) 0.0319(16) 1
Li48 Li1+ 6 d 0.488(4) 0.231(5) 0.417(4) 0.0319(16) 1
Li49 Li1+ 6 d 0.251(3) 0.068(3) 0.069(3) 0.0319(16) 1
#End of TTdata_432318-ICSD
#
