(C) 2022 by FIZ Karlsruhe - Leibniz Institute for Information Infrastructure.  All rights reserved.
data_250494-ICSD
_database_code_ICSD 250494
_audit_creation_date 2014-08-01
_chemical_name_common
'Strontium cerium aluminium silicon nitride (0.97/0.03/1.06/3.94/7)'
_chemical_formula_structural '(Sr0.97 Ce0.03) (Al1.06 Si3.94) N7'
_chemical_formula_sum 'Al1.06 Ce0.03 N7 Si3.94 Sr0.97'
_chemical_name_structure_type Sr(AlSi4N7)
_exptl_crystal_density_diffrn 3.51
_diffrn_ambient_temperature 293.
_citation_title

;
A novel yellow-emitting Sr Al Si4 N7:Ce3+ phosphor for solid state lighting:
synthesis, electronic structure and photoluminescence properties
;
loop_
_citation_id
_citation_journal_full
_citation_year
_citation_journal_volume
_citation_page_first
_citation_page_last
_citation_journal_id_ASTM
primary 'Journal of Solid State Chemistry' 2013 208 50 57 JSSCBI
loop_
_citation_author_citation_id
_citation_author_name
primary 'Ruan, Jian'
primary 'Xie, Rong-Jun'
primary 'Funahashi, Shiro'
primary 'Tanaka, Yoshinori'
primary 'Takeda, Takashi'
primary 'Suehiro, Takayuki'
primary 'Hirosaki, Naoto'
primary 'Li, Yuan-Qiang'
_cell_length_a 11.69850(10)
_cell_length_b 21.3380(2)
_cell_length_c 4.95330(10)
_cell_angle_alpha 90.
_cell_angle_beta 90.
_cell_angle_gamma 90.
_cell_volume 1236.45
_cell_formula_units_Z 8
_space_group_name_H-M_alt 'P n a 21'
_space_group_IT_number 33
loop_
_space_group_symop_id
_space_group_symop_operation_xyz
1 'x+1/2, -y+1/2, z'
2 '-x+1/2, y+1/2, z+1/2'
3 '-x, -y, z+1/2'
4 'x, y, z'
loop_
_atom_type_symbol
_atom_type_oxidation_number
Sr2+ 2
Ce3+ 3
N3- -3
Si4+ 4
Al3+ 3
loop_
_atom_site_label
_atom_site_type_symbol
_atom_site_symmetry_multiplicity
_atom_site_Wyckoff_symbol
_atom_site_fract_x
_atom_site_fract_y
_atom_site_fract_z
_atom_site_U_iso_or_equiv
_atom_site_occupancy
Sr1 Sr2+ 4 a 0.72095(3) 0.490941(16) -0.03012(10) 0.01144(9) 0.97
Sr2 Sr2+ 4 a 0.64514(3) 0.697486(17) -0.51202(16) 0.01740(10) 0.97
Ce1 Ce3+ 4 a 0.72095(3) 0.490941(16) -0.03012(10) 0.01144(9) 0.03
Ce2 Ce3+ 4 a 0.64514(3) 0.697486(17) -0.51202(16) 0.01740(10) 0.03
N1 N3- 4 a 0.7038(3) 0.53110(15) -0.5441(11) 0.0097(7) 1
N2 N3- 4 a 0.9333(3) 0.31596(15) 0.0087(11) 0.0103(7) 1
N3 N3- 4 a 0.7475(3) 0.37502(16) 0.0046(12) 0.0115(7) 1
N4 N3- 4 a 0.7860(3) 0.29843(16) 0.5166(11) 0.0129(8) 1
N5 N3- 4 a 0.6645(3) 0.63431(16) -0.0555(9) 0.0112(8) 1
N6 N3- 4 a 0.8990(3) 0.39955(16) 0.5215(11) 0.0131(9) 1
N7 N3- 4 a 0.8414(3) 0.64189(18) 0.3300(8) 0.0089(7) 1
N8 N3- 4 a 0.8624(3) 0.70656(17) -0.1768(8) 0.0102(8) 1
N9 N3- 4 a 0.5111(3) 0.53419(18) -0.1662(8) 0.0100(8) 1
N10 N3- 4 a 0.5944(3) 0.27319(18) 0.8325(8) 0.0108(8) 1
N11 N3- 4 a 0.4929(3) 0.60133(18) 0.3352(8) 0.0110(8) 1
N12 N3- 4 a 0.5602(4) 0.33444(18) 0.3327(8) 0.0110(8) 1
N13 N3- 4 a 0.9453(3) 0.51917(18) 0.3137(8) 0.0115(8) 1
N14 N3- 4 a 0.8746(3) 0.57356(17) -0.1709(8) 0.0099(8) 1
Si1 Si4+ 4 a 0.55757(9) 0.53289(4) -0.5119(4) 0.00660(19) 0.79
Si2 Si4+ 4 a 0.64169(9) 0.27714(5) 0.4991(4) 0.0060(2) 0.79
Si3 Si4+ 4 a 0.92201(8) 0.70018(5) -0.5038(4) 0.0061(2) 0.79
Si4 Si4+ 4 a 0.80751(8) 0.63940(4) -0.0173(4) 0.00558(19) 0.79
Si5 Si4+ 4 a 0.83759(9) 0.56536(4) -0.5192(4) 0.0063(2) 0.79
Si6 Si4+ 4 a 0.52838(8) 0.60940(5) -0.0118(4) 0.00623(19) 0.79
Si7 Si4+ 4 a 0.99639(8) 0.54370(5) -0.0048(4) 0.0060(2) 0.79
Si8 Si4+ 4 a 0.60517(9) 0.34753(5) -0.0017(4) 0.0070(2) 0.79
Si9 Si4+ 4 a 0.84510(16) 0.34915(8) 0.2657(3) 0.0094(3) 0.79
Si10 Si4+ 4 a 0.84454(16) 0.34844(8) -0.2403(3) 0.0081(3) 0.79
Al1 Al3+ 4 a 0.55757(9) 0.53289(4) -0.5119(4) 0.00660(19) 0.21
Al2 Al3+ 4 a 0.64169(9) 0.27714(5) 0.4991(4) 0.0060(2) 0.21
Al3 Al3+ 4 a 0.92201(8) 0.70018(5) -0.5038(4) 0.0061(2) 0.21
Al4 Al3+ 4 a 0.80751(8) 0.63940(4) -0.0173(4) 0.00558(19) 0.21
Al5 Al3+ 4 a 0.83759(9) 0.56536(4) -0.5192(4) 0.0063(2) 0.21
Al6 Al3+ 4 a 0.52838(8) 0.60940(5) -0.0118(4) 0.00623(19) 0.21
Al7 Al3+ 4 a 0.99639(8) 0.54370(5) -0.0048(4) 0.0060(2) 0.21
Al8 Al3+ 4 a 0.60517(9) 0.34753(5) -0.0017(4) 0.0070(2) 0.21
Al9 Al3+ 4 a 0.84510(16) 0.34915(8) 0.2657(3) 0.0094(3) 0.21
Al10 Al3+ 4 a 0.84454(16) 0.34844(8) -0.2403(3) 0.0081(3) 0.21
loop_
_atom_site_aniso_label
_atom_site_aniso_type_symbol
_atom_site_aniso_U_11
_atom_site_aniso_U_22
_atom_site_aniso_U_33
_atom_site_aniso_U_12
_atom_site_aniso_U_13
_atom_site_aniso_U_23
Sr1 Sr2+ 0.01133(17) 0.01052(16) 0.01248(19) -0.00112(13) 0.0003(3) 0.0006(2)
Sr2 Sr2+ 0.00936(16) 0.01406(18) 0.0288(2) 0.00112(14) 0.0000(3) 0.0045(3)
Ce1 Ce3+ 0.01133(17) 0.01052(16) 0.01248(19) -0.00112(13) 0.0003(3) 0.0006(2)
Ce2 Ce3+ 0.00936(16) 0.01406(18) 0.0288(2) 0.00112(14) 0.0000(3) 0.0045(3)
N1 N3- 0.0119(16) 0.0093(14) 0.0080(19) 0.0005(12) 0.0002(18) 0.0009(19)
N2 N3- 0.0084(14) 0.0112(15) 0.011(2) -0.0005(12) -0.001(2) -0.001(2)
N3 N3- 0.0091(15) 0.0128(15) 0.013(2) 0.0018(12) 0.003(2) 0.002(2)
N4 N3- 0.0107(15) 0.0101(15) 0.018(2) 0.0012(13) 0.002(2) -0.0003(18)
N5 N3- 0.0094(16) 0.0123(16) 0.012(2) -0.0009(13) -0.0025(17) 0.0037(16)
N6 N3- 0.0099(16) 0.0106(16) 0.019(3) -0.0021(13) -0.0040(19) 0.0031(18)
N7 N3- 0.0073(18) 0.0122(18) 0.0073(19) 0.0007(15) 0.0014(15) 0.0014(14)
N8 N3- 0.0119(19) 0.0087(17) 0.0098(19) 0.0006(15) -0.0001(15) 0.0009(14)
N9 N3- 0.0107(19) 0.0087(17) 0.011(2) 0.0019(15) 0.0022(15) -0.0016(14)
N10 N3- 0.014(2) 0.0105(18) 0.0081(19) -0.0021(15) -0.0013(16) 0.0012(15)
N11 N3- 0.0109(19) 0.014(2) 0.0082(19) 0.0013(16) -0.0012(15) 0.0002(15)
N12 N3- 0.0131(19) 0.0094(18) 0.010(2) 0.0028(15) 0.0001(16) -0.0003(15)
N13 N3- 0.0118(19) 0.0114(19) 0.011(2) 0.0028(15) 0.0008(16) 0.0012(15)
N14 N3- 0.0103(19) 0.0094(18) 0.010(2) 0.0017(14) 0.0004(15) -0.0013(14)
Si1 Si4+ 0.0066(4) 0.0065(4) 0.0067(5) -0.0002(4) -0.0007(7) -0.0003(7)
Si2 Si4+ 0.0069(5) 0.0055(4) 0.0055(5) -0.0002(4) 0.0002(7) -0.0012(6)
Si3 Si4+ 0.0050(4) 0.0064(4) 0.0070(5) -0.0003(3) 0.0003(7) 0.0000(7)
Si4 Si4+ 0.0050(4) 0.0058(4) 0.0059(5) -0.0003(3) 0.0005(7) 0.0003(7)
Si5 Si4+ 0.0061(4) 0.0069(4) 0.0060(5) 0.0001(3) 0.0001(8) 0.0002(7)
Si6 Si4+ 0.0064(5) 0.0061(4) 0.0062(5) 0.0003(3) -0.0004(7) -0.0003(7)
Si7 Si4+ 0.0045(4) 0.0056(4) 0.0079(5) 0.0005(3) 0.0002(7) 0.0006(6)
Si8 Si4+ 0.0058(4) 0.0075(5) 0.0079(6) 0.0005(4) -0.0009(7) 0.0014(7)
Si9 Si4+ 0.0066(8) 0.0117(8) 0.0098(7) 0.0000(6) -0.0009(6) 0.0002(6)
Si10 Si4+ 0.0070(8) 0.0095(8) 0.0077(6) -0.0007(6) 0.0011(6) -0.0009(5)
Al1 Al3+ 0.0066(4) 0.0065(4) 0.0067(5) -0.0002(4) -0.0007(7) -0.0003(7)
Al2 Al3+ 0.0069(5) 0.0055(4) 0.0055(5) -0.0002(4) 0.0002(7) -0.0012(6)
Al3 Al3+ 0.0050(4) 0.0064(4) 0.0070(5) -0.0003(3) 0.0003(7) 0.0000(7)
Al4 Al3+ 0.0050(4) 0.0058(4) 0.0059(5) -0.0003(3) 0.0005(7) 0.0003(7)
Al5 Al3+ 0.0061(4) 0.0069(4) 0.0060(5) 0.0001(3) 0.0001(8) 0.0002(7)
Al6 Al3+ 0.0064(5) 0.0061(4) 0.0062(5) 0.0003(3) -0.0004(7) -0.0003(7)
Al7 Al3+ 0.0045(4) 0.0056(4) 0.0079(5) 0.0005(3) 0.0002(7) 0.0006(6)
Al8 Al3+ 0.0058(4) 0.0075(5) 0.0079(6) 0.0005(4) -0.0009(7) 0.0014(7)
Al9 Al3+ 0.0066(8) 0.0117(8) 0.0098(7) 0.0000(6) -0.0009(6) 0.0002(6)
Al10 Al3+ 0.0070(8) 0.0095(8) 0.0077(6) -0.0007(6) 0.0011(6) -0.0009(5)
#End of TTdata_250494-ICSD
#
