(C) 2022 by FIZ Karlsruhe - Leibniz Institute for Information Infrastructure.  All rights reserved.
data_280695-ICSD
_database_code_ICSD 280695
_audit_creation_date 2002-10-01
_chemical_name_common 'Lithium manganese nitride (6.23/1.77/3)'
_chemical_formula_structural 'Li5 ((Li0.41 Mn0.59) N)3'
_chemical_formula_sum 'Li6.23 Mn1.77 N3'
_chemical_name_structure_type Li5Ni3N3
_exptl_crystal_density_diffrn 2.27
_citation_title

;
Li24 (Mn N3)3 N2 and Li5 ((Li1-x Mnx) N)3, two intermediates in the
decomposition path of Li7 (Mn N4) to Li2 ((Li1-x Mnx) N): an experimental and
theoretical study
;
loop_
_citation_id
_citation_journal_full
_citation_year
_citation_journal_volume
_citation_page_first
_citation_page_last
_citation_journal_id_ASTM
primary 'Inorganic Chemistry' 2001 40 5215 5222 INOCAJ
loop_
_citation_author_citation_id
_citation_author_name
primary 'Niewa, R.'
primary 'Wagner, F.R.'
primary 'Schnelle, W.'
primary 'Hochrein, O.'
primary 'Kniep, R.'
_cell_length_a 6.359(3)
_cell_length_b 6.359(3)
_cell_length_c 3.817(2)
_cell_angle_alpha 90.
_cell_angle_beta 90.
_cell_angle_gamma 120.
_cell_volume 133.67
_cell_formula_units_Z 1
_space_group_name_H-M_alt 'P -6 2 m'
_space_group_IT_number 189
loop_
_space_group_symop_id
_space_group_symop_operation_xyz
1 '-x, -x+y, -z'
2 'x-y, -y, -z'
3 'y, x, -z'
4 '-x, -x+y, z'
5 'x-y, -y, z'
6 'y, x, z'
7 '-x+y, -x, -z'
8 '-y, x-y, -z'
9 'x, y, -z'
10 '-x+y, -x, z'
11 '-y, x-y, z'
12 'x, y, z'
loop_
_atom_type_symbol
_atom_type_oxidation_number
Mn2+ 1.565
Li1+ 1
N3- -3
Li1+ 1
loop_
_atom_site_label
_atom_site_type_symbol
_atom_site_symmetry_multiplicity
_atom_site_Wyckoff_symbol
_atom_site_fract_x
_atom_site_fract_y
_atom_site_fract_z
_atom_site_B_iso_or_equiv
_atom_site_occupancy
Mn1 Mn2+ 3 f 0.6389(3) 0 0 . 0.593(12)
Li1 Li1+ 3 f 0.6389(3) 0 0 . 0.407(12)
N1 N3- 3 g 0.6460(12) 0 0.5 . 1.
Li2 Li1+ 3 g 0.271(6) 0 0.5 . 1.
Li3 Li1+ 2 d 0.6667 0.3333 0.5 . 1.
loop_
_atom_site_aniso_label
_atom_site_aniso_type_symbol
_atom_site_aniso_U_11
_atom_site_aniso_U_22
_atom_site_aniso_U_33
_atom_site_aniso_U_12
_atom_site_aniso_U_13
_atom_site_aniso_U_23
Mn1 Mn2+ 0.0333(11) 0.0293(14) 0.0077(9) 0.0147(7) 0 0
Li1 Li1+ 0.0333(11) 0.0293(14) 0.0077(9) 0.0147(7) 0 0
N1 N3- 0.037(4) 0.011(4) 0.015(3) 0.0053(19) 0 0
Li2 Li1+ 0.078(16) 0.032(12) 0.030(13) 0.016(6) 0 0
Li3 Li1+ 0.016(8) 0.016(8) 0.05(2) 0.008(4) 0 0
#End of TTdata_280695-ICSD
#
