(C) 2022 by FIZ Karlsruhe - Leibniz Institute for Information Infrastructure.  All rights reserved.
data_93042-ICSD
_database_code_ICSD 93042
_audit_creation_date 2003-04-01
_chemical_name_common 'Lithium copper nitride (2.57/0.43/1)'
_chemical_formula_structural '(Li0.572 Cu0.428) Li2 N'
_chemical_formula_sum 'Cu0.428 Li2.572 N1'
_chemical_name_structure_type Li3N
_exptl_crystal_density_diffrn 2.22
_diffrn_ambient_temperature 298.
_citation_title

;
Ternary lithium nitridocuprates, Li3-x-y Cux N : crystal growth, bulk
synthesis, structure and magnetic properties
;
loop_
_citation_id
_citation_journal_full
_citation_year
_citation_journal_volume
_citation_page_first
_citation_page_last
_citation_journal_id_ASTM
primary 'International Journal of Inorganic Materials' 2001 3 973 981 IJIMCR
loop_
_citation_author_citation_id
_citation_author_name
primary 'Gordon, A.G.'
primary 'Gregory, D.H.'
primary 'Blake, A.J.'
primary 'Weston, D.P.'
primary 'Jones, M.O.'
_cell_length_a 3.6789(3)
_cell_length_b 3.6789(3)
_cell_length_c 3.7717(5)
_cell_angle_alpha 90
_cell_angle_beta 90
_cell_angle_gamma 120
_cell_volume 44.21
_cell_formula_units_Z 1
_space_group_name_H-M_alt 'P 6/m m m'
_space_group_IT_number 191
loop_
_space_group_symop_id
_space_group_symop_operation_xyz
1 '-x, -x+y, -z'
2 'x-y, -y, -z'
3 'y, x, -z'
4 '-x+y, -x, -z'
5 '-y, x-y, -z'
6 'x, y, -z'
7 'x, x-y, -z'
8 '-x+y, y, -z'
9 '-y, -x, -z'
10 'x-y, x, -z'
11 'y, -x+y, -z'
12 '-x, -y, -z'
13 'x, x-y, z'
14 '-x+y, y, z'
15 '-y, -x, z'
16 'x-y, x, z'
17 'y, -x+y, z'
18 '-x, -y, z'
19 '-x, -x+y, z'
20 'x-y, -y, z'
21 'y, x, z'
22 '-x+y, -x, z'
23 '-y, x-y, z'
24 'x, y, z'
loop_
_atom_type_symbol
_atom_type_oxidation_number
Li1+ 1
Cu1+ 1
Li1+ 1
N3- -3
loop_
_atom_site_label
_atom_site_type_symbol
_atom_site_symmetry_multiplicity
_atom_site_Wyckoff_symbol
_atom_site_fract_x
_atom_site_fract_y
_atom_site_fract_z
_atom_site_U_iso_or_equiv
_atom_site_occupancy
Li1 Li1+ 1 b 0 0 0.5 0.0091(3) 0.572(8)
Cu1 Cu1+ 1 b 0 0 0.5 0.0091(3) 0.428(9)
Li2 Li1+ 2 c 0.6667 0.3333 0 0.033(3) 1.
N1 N3- 1 a 0 0 0 0.0098(10) 1.
loop_
_atom_site_aniso_label
_atom_site_aniso_type_symbol
_atom_site_aniso_U_11
_atom_site_aniso_U_22
_atom_site_aniso_U_33
_atom_site_aniso_U_12
_atom_site_aniso_U_13
_atom_site_aniso_U_23
Li1 Li1+ 0.0109(4) 0.0109(4) 0.0054(5) 0.0055(2) 0. 0.
Cu1 Cu1+ 0.0109(4) 0.0109(4) 0.0054(5) 0.0055(2) 0. 0.
Li2 Li1+ 0.017(2) 0.017(2) 0.062(5) 0.0085(10) 0. 0.
N1 N3- 0.0107(12) 0.0107(12) 0.0082(16) 0.0054(6) 0. 0.
#End of TTdata_93042-ICSD
#
