(C) 2022 by FIZ Karlsruhe - Leibniz Institute for Information Infrastructure.  All rights reserved.
data_165989-ICSD
_database_code_ICSD 165989
_audit_creation_date 2010-08-01
_chemical_name_common 'Trisodium nitride - II'
_chemical_formula_structural 'Na3 N'
_chemical_formula_sum 'N1 Na3'
_chemical_name_structure_type Li3N
_exptl_crystal_density_diffrn 1.75
_diffrn_ambient_pressure 1700000.
_citation_title
'Structural phase transitions of sodium nitride at high pressure'
loop_
_citation_id
_citation_journal_full
_citation_year
_citation_journal_volume
_citation_page_first
_citation_page_last
_citation_journal_id_ASTM
primary 'Physical Review B: Condensed Matter and Materials Physics' 2009 79 1 8
PRBMDO
loop_
_citation_author_citation_id
_citation_author_name
primary 'Vajenine, G.V.'
primary 'Wang, X.'
primary 'Efthimiopoulos, I.'
primary 'Karmakar, S.'
primary 'Syassen, K.'
primary 'Hanfland, M.'
_cell_length_a 4.4414(3)
_cell_length_b 4.4414(3)
_cell_length_c 4.6133(4)
_cell_angle_alpha 90.
_cell_angle_beta 90.
_cell_angle_gamma 120.
_cell_volume 78.81
_cell_formula_units_Z 1
_space_group_name_H-M_alt 'P 6/m m m'
_space_group_IT_number 191
loop_
_space_group_symop_id
_space_group_symop_operation_xyz
1 '-x, -x+y, -z'
2 'x-y, -y, -z'
3 'y, x, -z'
4 '-x+y, -x, -z'
5 '-y, x-y, -z'
6 'x, y, -z'
7 'x, x-y, -z'
8 '-x+y, y, -z'
9 '-y, -x, -z'
10 'x-y, x, -z'
11 'y, -x+y, -z'
12 '-x, -y, -z'
13 'x, x-y, z'
14 '-x+y, y, z'
15 '-y, -x, z'
16 'x-y, x, z'
17 'y, -x+y, z'
18 '-x, -y, z'
19 '-x, -x+y, z'
20 'x-y, -y, z'
21 'y, x, z'
22 '-x+y, -x, z'
23 '-y, x-y, z'
24 'x, y, z'
loop_
_atom_type_symbol
_atom_type_oxidation_number
N3- -3
Na1+ 1
loop_
_atom_site_label
_atom_site_type_symbol
_atom_site_symmetry_multiplicity
_atom_site_Wyckoff_symbol
_atom_site_fract_x
_atom_site_fract_y
_atom_site_fract_z
_atom_site_B_iso_or_equiv
_atom_site_occupancy
N1 N3- 1 a 0 0 0 . 1.
Na1 Na1+ 1 b 0 0 0.5 . 1.
Na2 Na1+ 2 c 0.3333 0.6667 0 . 1.
#End of TTdata_165989-ICSD
#
