(C) 2022 by FIZ Karlsruhe - Leibniz Institute for Information Infrastructure.  All rights reserved.
data_170990-ICSD
_database_code_ICSD 170990
_audit_creation_date 2006-04-01
_audit_update_record 2008-02-01
_chemical_name_common 'Lithium cobalt nitride (1.99/1/0.53/1)'
_chemical_formula_structural 'Li1.99 Co0.53 N'
_chemical_formula_sum 'Co0.53 Li1.99 N1'
_chemical_name_structure_type Li3N
_exptl_crystal_density_diffrn 2.25
_diffrn_ambient_temperature 150.
_citation_title

;
Crystal growth, defect structure and magnetism of new Li3 N-derived lithium
nitridocobaltates
;
loop_
_citation_id
_citation_journal_full
_citation_year
_citation_journal_volume
_citation_page_first
_citation_page_last
_citation_journal_id_ASTM
primary 'Chemical Communications (Cambridge, United Kingdom)' 2004 2004 2812
2813 CHCOFS
loop_
_citation_author_citation_id
_citation_author_name
primary 'Gordon, A.G.'
primary 'Smith, R.I.'
primary 'Wilson, C.'
primary 'Stoeva, Z.'
primary 'Gregory, D.H.'
primary 'Duncan, H.'
_cell_length_a 3.7343(13)
_cell_length_b 3.7343(13)
_cell_length_c 3.607(2)
_cell_angle_alpha 90
_cell_angle_beta 90
_cell_angle_gamma 120
_cell_volume 43.56
_cell_formula_units_Z 1
_space_group_name_H-M_alt 'P 6/m m m'
_space_group_IT_number 191
loop_
_space_group_symop_id
_space_group_symop_operation_xyz
1 '-x, -x+y, -z'
2 'x-y, -y, -z'
3 'y, x, -z'
4 '-x+y, -x, -z'
5 '-y, x-y, -z'
6 'x, y, -z'
7 'x, x-y, -z'
8 '-x+y, y, -z'
9 '-y, -x, -z'
10 'x-y, x, -z'
11 'y, -x+y, -z'
12 '-x, -y, -z'
13 'x, x-y, z'
14 '-x+y, y, z'
15 '-y, -x, z'
16 'x-y, x, z'
17 'y, -x+y, z'
18 '-x, -y, z'
19 '-x, -x+y, z'
20 'x-y, -y, z'
21 'y, x, z'
22 '-x+y, -x, z'
23 '-y, x-y, z'
24 'x, y, z'
loop_
_atom_type_symbol
_atom_type_oxidation_number
Co2+ 2
Li1+ 1
N3- -3
Li1+ 1
loop_
_atom_site_label
_atom_site_type_symbol
_atom_site_symmetry_multiplicity
_atom_site_Wyckoff_symbol
_atom_site_fract_x
_atom_site_fract_y
_atom_site_fract_z
_atom_site_U_iso_or_equiv
_atom_site_occupancy
Co1 Co2+ 1 b 0 0 0.5 0.0176(8) 0.53(2)
Li1 Li1+ 1 b 0 0 0.5 0.0176(8) 0.47(2)
N1 N3- 1 a 0 0 0 0.018(2) 1
Li2 Li1+ 2 c 0.3333 0.6667 0 0.055(8) 0.76(9)
loop_
_atom_site_aniso_label
_atom_site_aniso_type_symbol
_atom_site_aniso_U_11
_atom_site_aniso_U_22
_atom_site_aniso_U_33
_atom_site_aniso_U_12
_atom_site_aniso_U_13
_atom_site_aniso_U_23
Co1 Co2+ 0.0211(9) 0.0211(9) 0.0105(10) 0.0106(4) 0 0
Li1 Li1+ 0.0211(9) 0.0211(9) 0.0105(10) 0.0106(4) 0 0
N1 N3- 0.017(3) 0.017(3) 0.020(4) 0.0083(13) 0 0
Li2 Li1+ 0.036(7) 0.036(7) 0.091(18) 0.018(4) 0 0
#End of TTdata_170990-ICSD
#
