(C) 2022 by FIZ Karlsruhe - Leibniz Institute for Information Infrastructure.  All rights reserved.
data_71635-ICSD
_database_code_ICSD 71635
_audit_creation_date 1993-08-22
_audit_update_record 2017-08-01
_chemical_name_common 'Lithium tantalum nitride (0.98/3.02/4)'
_chemical_formula_structural 'Li0.977 Ta3.023 N4'
_chemical_formula_sum 'Li0.977 N4 Ta3.023'
_chemical_name_structure_type LiTa3N4
_exptl_crystal_density_diffrn 12.63
_diffrn_ambient_temperature 300.
_citation_title

;
Darstellung und Struktur einiger gemischtvalenter ternaerer Tantalnitride mit
Lithium und Magnesium
;
loop_
_citation_id
_citation_journal_full
_citation_year
_citation_journal_volume
_citation_page_first
_citation_page_last
_citation_journal_id_ASTM
primary 'Journal of Alloys and Compounds' 1992 183 325 344 JALCEU
loop_
_citation_author_citation_id
_citation_author_name
primary 'Brokamp, T.'
primary 'Jacobs, H.'
_cell_length_a 5.181(1)
_cell_length_b 5.181(1)
_cell_length_c 10.351(2)
_cell_angle_alpha 90.
_cell_angle_beta 90.
_cell_angle_gamma 120.
_cell_volume 240.62
_cell_formula_units_Z 3
_space_group_name_H-M_alt 'P 63/m c m'
_space_group_IT_number 193
loop_
_space_group_symop_id
_space_group_symop_operation_xyz
1 '-x, -x+y, -z+1/2'
2 'x-y, -y, -z+1/2'
3 'y, x, -z+1/2'
4 '-x+y, -x, -z+1/2'
5 '-y, x-y, -z+1/2'
6 'x, y, -z+1/2'
7 'x, x-y, z+1/2'
8 '-x+y, y, z+1/2'
9 '-y, -x, z+1/2'
10 'x-y, x, z+1/2'
11 'y, -x+y, z+1/2'
12 '-x, -y, z+1/2'
13 'x, x-y, -z'
14 '-x+y, y, -z'
15 '-y, -x, -z'
16 'x-y, x, -z'
17 'y, -x+y, -z'
18 '-x, -y, -z'
19 '-x, -x+y, z'
20 'x-y, -y, z'
21 'y, x, z'
22 '-x+y, -x, z'
23 '-y, x-y, z'
24 'x, y, z'
loop_
_atom_type_symbol
_atom_type_oxidation_number
Ta4+ 3.646
Li1+ 1
Ta4+ 3.646
N3- -3
loop_
_atom_site_label
_atom_site_type_symbol
_atom_site_symmetry_multiplicity
_atom_site_Wyckoff_symbol
_atom_site_fract_x
_atom_site_fract_y
_atom_site_fract_z
_atom_site_B_iso_or_equiv
_atom_site_occupancy
Ta1 Ta4+ 2 b 0 0 0 0.01(20) 0.07(3)
Li1 Li1+ 2 b 0 0 0 0.01(20) 0.93(3)
Li2 Li1+ 4 d 0.3333 0.6667 0 0.01(20) 0.268(20)
Ta2 Ta4+ 4 d 0.3333 0.6667 0 0.01(20) 0.733(20)
Ta3 Ta4+ 6 g 0.3314(6) 0 0.25 0.01(10) 1.
N1 N3- 12 k 0.336(2) 0 0.6194(3) 0.11(4) 1.
#End of TTdata_71635-ICSD
#
