(C) 2022 by FIZ Karlsruhe - Leibniz Institute for Information Infrastructure.  All rights reserved.
data_95941-ICSD
_database_code_ICSD 95941
_audit_creation_date 2004-04-01
_chemical_name_common 'Lithium nickel nitride (1.35/0.79/1)'
_chemical_formula_structural '(Li0.21 Ni0.79) Li1.14 N'
_chemical_formula_sum 'Li1.35 N1 Ni0.79'
_exptl_crystal_density_diffrn 2.67
_diffrn_ambient_temperature 298.
_citation_title

;
Structure of lithium nitride and transition-metal-doped derivatives, Li3-x-y
Mx N (M = Ni, Cu): a powder neutron diffraction study
;
loop_
_citation_id
_citation_journal_full
_citation_year
_citation_journal_volume
_citation_page_first
_citation_page_last
_citation_journal_id_ASTM
primary 'Chemistry of Materials' 2002 14 2063 2070 CMATEX
loop_
_citation_author_citation_id
_citation_author_name
primary 'Gregory, D.H.'
primary "O'Meara, P.M."
primary 'Gordon, A.G.'
primary 'Hodges, J.P.'
primary 'Short, S.'
primary 'Jorgensen, J.D.'
_cell_length_a 3.7696(1)
_cell_length_b 3.7696(1)
_cell_length_c 3.5270(1)
_cell_angle_alpha 90
_cell_angle_beta 90
_cell_angle_gamma 120
_cell_volume 43.4
_cell_formula_units_Z 1
_space_group_name_H-M_alt 'P 6/m m m'
_space_group_IT_number 191
loop_
_space_group_symop_id
_space_group_symop_operation_xyz
1 '-x, -x+y, -z'
2 'x-y, -y, -z'
3 'y, x, -z'
4 '-x+y, -x, -z'
5 '-y, x-y, -z'
6 'x, y, -z'
7 'x, x-y, -z'
8 '-x+y, y, -z'
9 '-y, -x, -z'
10 'x-y, x, -z'
11 'y, -x+y, -z'
12 '-x, -y, -z'
13 'x, x-y, z'
14 '-x+y, y, z'
15 '-y, -x, z'
16 'x-y, x, z'
17 'y, -x+y, z'
18 '-x, -y, z'
19 '-x, -x+y, z'
20 'x-y, -y, z'
21 'y, x, z'
22 '-x+y, -x, z'
23 '-y, x-y, z'
24 'x, y, z'
loop_
_atom_type_symbol
_atom_type_oxidation_number
Li1+ 1
Ni2+ 2.089
Li1+ 1
N3- -3
loop_
_atom_site_label
_atom_site_type_symbol
_atom_site_symmetry_multiplicity
_atom_site_Wyckoff_symbol
_atom_site_fract_x
_atom_site_fract_y
_atom_site_fract_z
_atom_site_B_iso_or_equiv
_atom_site_occupancy
Li1 Li1+ 1 b 0 0 0.5 . 0.21(1)
Ni1 Ni2+ 1 b 0 0 0.5 . 0.79(1)
Li2 Li1+ 2 c 0.6667 0.3333 0 . 0.57(2)
N1 N3- 1 a 0 0 0 . 1.
loop_
_atom_site_aniso_label
_atom_site_aniso_type_symbol
_atom_site_aniso_U_11
_atom_site_aniso_U_22
_atom_site_aniso_U_33
_atom_site_aniso_U_12
_atom_site_aniso_U_13
_atom_site_aniso_U_23
Li1 Li1+ 0.018(1) 0.018(1) 0.006(2) 0.009(1) 0. 0.
Ni1 Ni2+ 0.018(1) 0.018(1) 0.006(2) 0.009(1) 0. 0.
Li2 Li1+ 0.035(4) 0.035(4) 0.055(5) 0.017(1) 0. 0.
N1 N3- 0.025(1) 0.025(1) 0.006(1) 0.012(1) 0. 0.
#End of TTdata_95941-ICSD
#
