(C) 2022 by FIZ Karlsruhe - Leibniz Institute for Information Infrastructure.  All rights reserved.
data_161797-ICSD
_database_code_ICSD 161797
_audit_creation_date 2009-02-01
_chemical_name_common
'Calcium cerium lithium aluminium silicon nitride (0.98/0.01/0.01/0.6/1.3/3)'
_chemical_formula_structural '(Ca0.98 Ce0.01 Li0.01) (Al0.6 Si1.3) N3'
_chemical_formula_sum 'Al0.6 Ca0.98 Ce0.01 Li0.01 N3 Si1.3'
_chemical_name_structure_type Na2SiO3
_exptl_crystal_density_diffrn 3.22
_citation_title

;
Yellow-orange-emitting Ca Al Si N3 : Ce(3+) phosphor: structure,
photoluminescence and application in white LED's
;
loop_
_citation_id
_citation_journal_full
_citation_year
_citation_journal_volume
_citation_page_first
_citation_page_last
_citation_journal_id_ASTM
primary 'Chemistry of Materials' 2008 20 6704 6714 CMATEX
loop_
_citation_author_citation_id
_citation_author_name
primary 'Li, Y.Q.'
primary 'Hirosaki, N.'
primary 'Xie, R.J.'
primary 'Takeda, T.'
primary 'Mitomo, M.'
_cell_length_a 9.7950(1)
_cell_length_b 5.6465(1)
_cell_length_c 5.0590(1)
_cell_angle_alpha 90.
_cell_angle_beta 90.
_cell_angle_gamma 90.
_cell_volume 279.8
_cell_formula_units_Z 4
_space_group_name_H-M_alt 'C m c 21'
_space_group_IT_number 36
loop_
_space_group_symop_id
_space_group_symop_operation_xyz
1 'x, -y, z+1/2'
2 '-x, -y, z+1/2'
3 '-x, y, z'
4 'x, y, z'
5 'x+1/2, -y+1/2, z+1/2'
6 '-x+1/2, -y+1/2, z+1/2'
7 '-x+1/2, y+1/2, z'
8 'x+1/2, y+1/2, z'
loop_
_atom_type_symbol
_atom_type_oxidation_number
Ca2+ 2
Ce3+ 3
Li1+ 1
Al3+ 3
Si4+ 4
N3- -3
loop_
_atom_site_label
_atom_site_type_symbol
_atom_site_symmetry_multiplicity
_atom_site_Wyckoff_symbol
_atom_site_fract_x
_atom_site_fract_y
_atom_site_fract_z
_atom_site_U_iso_or_equiv
_atom_site_occupancy
Ca1 Ca2+ 4 a 0 0.3157(3) 0.4946(1) 0.0155(1) 0.98
Ce1 Ce3+ 4 a 0 0.3157(3) 0.4946(1) 0.0155(1) 0.01
Li1 Li1+ 4 a 0 0.3157(3) 0.4946(1) 0.0155(1) 0.01
Al1 Al3+ 8 b 0.1721(2) 0.1563(3) 0.0218(4) 0.001(1) 0.3
Si1 Si4+ 8 b 0.1721(2) 0.1563(3) 0.0218(4) 0.001(1) 0.65
N1 N3- 8 b 0.2122(3) 0.1238(8) 0.3756(5) 0.003(2) 1.
N2 N3- 4 a 0 0.2431(7) -0.0253(11) 0.0034(3) 1.
#End of TTdata_161797-ICSD
#
