(C) 2022 by FIZ Karlsruhe - Leibniz Institute for Information Infrastructure.  All rights reserved.
data_151435-ICSD
_database_code_ICSD 151435
_audit_creation_date 2006-10-01
_chemical_name_common 'Tetradecalithium bis(tetranitridochromate(VI)) oxide'
_chemical_formula_structural 'Li14 (Cr N4)2 O'
_chemical_formula_sum 'Cr2 Li14 N8 O1'
_chemical_name_structure_type Na14Mn2O9
_exptl_crystal_density_diffrn 2.24
_diffrn_ambient_temperature 300.
_citation_title

;
Antifluorite-type lithium chromium oxide nitrides: synthesis, structure, order
and electrochemical properties
;
loop_
_citation_id
_citation_journal_full
_citation_year
_citation_journal_volume
_citation_page_first
_citation_page_last
_citation_journal_id_ASTM
primary 'Inorganic Chemistry' 2004 43 7050 7060 INOCAJ
loop_
_citation_author_citation_id
_citation_author_name
primary 'Cabana, J.'
primary 'Ling, C.-D.'
primary 'Oro-Sole, J.'
primary 'Gautier, D.'
primary 'Tobias, G.'
primary 'Adams, S.'
primary 'Canadell, E.'
primary 'Palacin, M.R.'
_cell_length_a 5.8332(2)
_cell_length_b 5.8332(2)
_cell_length_c 8.2793(5)
_cell_angle_alpha 90.
_cell_angle_beta 90.
_cell_angle_gamma 120.
_cell_volume 243.97
_cell_formula_units_Z 1
_space_group_name_H-M_alt 'P -3'
_space_group_IT_number 147
loop_
_space_group_symop_id
_space_group_symop_operation_xyz
1 'x-y, x, -z'
2 'y, -x+y, -z'
3 '-x, -y, -z'
4 '-x+y, -x, z'
5 '-y, x-y, z'
6 'x, y, z'
loop_
_atom_type_symbol
_atom_type_oxidation_number
Li1+ 1
Cr6+ 6
N3- -3
O2- -2
loop_
_atom_site_label
_atom_site_type_symbol
_atom_site_symmetry_multiplicity
_atom_site_Wyckoff_symbol
_atom_site_fract_x
_atom_site_fract_y
_atom_site_fract_z
_atom_site_U_iso_or_equiv
_atom_site_occupancy
Li1 Li1+ 6 g 0.923(3) 0.311(3) 0.0956(14) 0.0139(4) 1.
Li2 Li1+ 6 g 0.375(5) 0.337(5) 0.4286(19) 0.0139(4) 1.
Li3 Li1+ 2 c 0 0 0.239(7) 0.0139(4) 1.
Cr1 Cr6+ 2 d 0.3333 0.6667 0.252(2) 0.005(2) 1.
N1 N3- 6 g 0.0626(7) 0.6927(7) 0.1652(6) 0.0317(13) 1.
N2 N3- 2 d 0.3333 0.6667 0.4619(11) 0.018(2) 1.
O1 O2- 1 b 0 0 0.5 0.015(5) 1.
#End of TTdata_151435-ICSD
#
