(C) 2022 by FIZ Karlsruhe - Leibniz Institute for Information Infrastructure.  All rights reserved.
data_93258-ICSD
_database_code_ICSD 93258
_audit_creation_date 2003-04-01
_audit_update_record 2013-08-01
_chemical_name_common 'Lithium magnesium nitride (0.51/2.49/1.83)'
_chemical_formula_structural '(Li0.51 Mg2.49) N1.83'
_chemical_formula_sum 'Li0.51 Mg2.49 N1.83'
_chemical_name_structure_type (Mg,Li)3N2-x
_exptl_crystal_density_diffrn 2.4
_citation_title
'Ternary nitrides prepared in the (Li3 N)-(Mg3 N2) system at 900 - 1000 K'
loop_
_citation_id
_citation_journal_full
_citation_year
_citation_journal_volume
_citation_page_first
_citation_page_last
_citation_journal_id_ASTM
primary 'Journal of Alloys and Compounds' 2001 319 124 130 JALCEU
loop_
_citation_author_citation_id
_citation_author_name
primary 'Yamane, H.'
primary 'Okabe, T.H.'
primary 'Ishiyama, O.'
primary 'Waseda, Y.'
primary 'Shimada, M.'
_cell_length_a 9.9767(5)
_cell_length_b 9.9767(5)
_cell_length_c 9.9767(5)
_cell_angle_alpha 90
_cell_angle_beta 90
_cell_angle_gamma 90
_cell_volume 993.03
_cell_formula_units_Z 16
_space_group_name_H-M_alt 'I 21 3'
_space_group_IT_number 199
loop_
_space_group_symop_id
_space_group_symop_operation_xyz
1 '-z+1/2, -x, y+1/2'
2 '-y+1/2, -z, x+1/2'
3 '-x+1/2, -y, z+1/2'
4 '-z, x+1/2, -y+1/2'
5 '-y, z+1/2, -x+1/2'
6 '-x, y+1/2, -z+1/2'
7 'z+1/2, -x+1/2, -y'
8 'y+1/2, -z+1/2, -x'
9 'x+1/2, -y+1/2, -z'
10 'z, x, y'
11 'y, z, x'
12 'x, y, z'
13 '-z, -x+1/2, y'
14 '-y, -z+1/2, x'
15 '-x, -y+1/2, z'
16 '-z+1/2, x, -y'
17 '-y+1/2, z, -x'
18 '-x+1/2, y, -z'
19 'z, -x, -y+1/2'
20 'y, -z, -x+1/2'
21 'x, -y, -z+1/2'
22 'z+1/2, x+1/2, y+1/2'
23 'y+1/2, z+1/2, x+1/2'
24 'x+1/2, y+1/2, z+1/2'
loop_
_atom_type_symbol
_atom_type_oxidation_number
Li1+ 1
Mg2+ 2
Li1+ 1
Mg2+ 2
N3- -3
loop_
_atom_site_label
_atom_site_type_symbol
_atom_site_symmetry_multiplicity
_atom_site_Wyckoff_symbol
_atom_site_fract_x
_atom_site_fract_y
_atom_site_fract_z
_atom_site_B_iso_or_equiv
_atom_site_occupancy
Li1 Li1+ 24 c 0.6192(10) 0.6151(9) 0.8470(6) 1.05(4) 0.04(4)
Mg1 Mg2+ 24 c 0.6192(10) 0.6151(9) 0.8470(6) 1.05(4) 0.96(4)
Li2 Li1+ 24 c 0.3790(12) 0.39875(9) 0.1505(8) 1.05(4) 0.3
Mg2 Mg2+ 24 c 0.3790(12) 0.39875(9) 0.1505(8) 1.05(4) 0.7
N1 N3- 12 b 0.971(2) 0 0.25 0.78(10) 0.90(3)
N2 N3- 12 b 0.026(2) 0 0.75 0.78(10) 0.94(3)
N3 N3- 8 a 0.256(2) 0.256(2) 0.256(2) 0.78(10) 0.9
#End of TTdata_93258-ICSD
#
