(C) 2022 by FIZ Karlsruhe - Leibniz Institute for Information Infrastructure.  All rights reserved.
data_419852-ICSD
_database_code_ICSD 419852
_audit_creation_date 2013-02-01
_chemical_name_common 'Pentalithium oxotrichloride'
_chemical_formula_structural 'Li (Li4 O) Cl3'
_chemical_formula_sum 'Cl3 Li5 O1'
_chemical_name_structure_type Perovskite-anti#Cs3(CoCl4)Cl
_exptl_crystal_density_diffrn 2.03
_diffrn_ambient_temperature 293.
_citation_title
'Li5 O Cl3 and Li3 O Cl: Two remarkably different lithium oxide chlorides'
loop_
_citation_id
_citation_journal_full
_citation_year
_citation_journal_volume
_citation_page_first
_citation_page_last
_citation_journal_id_ASTM
primary 'Zeitschrift fuer Anorganische und Allgemeine Chemie (1950) (DE)' 2012
638 2081 2086 ZAACAB
loop_
_citation_author_citation_id
_citation_author_name
primary 'Reckeweg, O.'
primary 'Blaschkowski, B.'
primary 'Schleid, T.'
_cell_length_a 6.8528(3)
_cell_length_b 6.8528(3)
_cell_length_c 10.9324(5)
_cell_angle_alpha 90.
_cell_angle_beta 90.
_cell_angle_gamma 90.
_cell_volume 513.39
_cell_formula_units_Z 4
_space_group_name_H-M_alt 'I 4/m c m'
_space_group_IT_number 140
loop_
_space_group_symop_id
_space_group_symop_operation_xyz
1 'y, x, -z+1/2'
2 '-y, -x, -z+1/2'
3 '-y, x, -z'
4 'y, -x, -z'
5 'x, -y, -z+1/2'
6 '-x, y, -z+1/2'
7 'x, y, -z'
8 '-x, -y, -z'
9 '-y, -x, z+1/2'
10 'y, x, z+1/2'
11 'y, -x, z'
12 '-y, x, z'
13 '-x, y, z+1/2'
14 'x, -y, z+1/2'
15 '-x, -y, z'
16 'x, y, z'
17 'y+1/2, x+1/2, -z'
18 '-y+1/2, -x+1/2, -z'
19 '-y+1/2, x+1/2, -z+1/2'
20 'y+1/2, -x+1/2, -z+1/2'
21 'x+1/2, -y+1/2, -z'
22 '-x+1/2, y+1/2, -z'
23 'x+1/2, y+1/2, -z+1/2'
24 '-x+1/2, -y+1/2, -z+1/2'
25 '-y+1/2, -x+1/2, z'
26 'y+1/2, x+1/2, z'
27 'y+1/2, -x+1/2, z+1/2'
28 '-y+1/2, x+1/2, z+1/2'
29 '-x+1/2, y+1/2, z'
30 'x+1/2, -y+1/2, z'
31 '-x+1/2, -y+1/2, z+1/2'
32 'x+1/2, y+1/2, z+1/2'
loop_
_atom_type_symbol
_atom_type_oxidation_number
Li1+ 1
O2- -2
Cl1- -1
loop_
_atom_site_label
_atom_site_type_symbol
_atom_site_symmetry_multiplicity
_atom_site_Wyckoff_symbol
_atom_site_fract_x
_atom_site_fract_y
_atom_site_fract_z
_atom_site_U_iso_or_equiv
_atom_site_occupancy
Li1 Li1+ 4 c 0. 0. 0. 0.037(3) 1
Li2 Li1+ 16 l 0.1360(6) 0.6360(6) 0.3488(7) 0.0334(13) 1
O1 O2- 4 b 0. 0.5 0.25 0.0133(9) 1
Cl1 Cl1- 4 a 0. 0. 0.25 0.0195(5) 1
Cl2 Cl1- 8 h 0.17934(7) 0.67934(7) 0. 0.0061(5) 1
loop_
_atom_site_aniso_label
_atom_site_aniso_type_symbol
_atom_site_aniso_U_11
_atom_site_aniso_U_22
_atom_site_aniso_U_33
_atom_site_aniso_U_12
_atom_site_aniso_U_13
_atom_site_aniso_U_23
Li1 Li1+ 0.035(4) 0.035(4) 0.042(7) 0. 0. 0.
Li2 Li1+ 0.0330(18) 0.0330(18) 0.034(3) -0.010(3) -0.0021(19) -0.0021(19)
O1 O2- 0.0130(12) 0.0130(12) 0.0139(16) 0. 0. 0.
Cl1 Cl1- 0.0201(6) 0.0201(6) 0.0181(7) 0. 0. 0.
Cl2 Cl1- 0.0056(5) 0.0056(5) 0.0071(6) -0.0005(2) 0. 0.
#End of TTdata_419852-ICSD
#
