(C) 2022 by FIZ Karlsruhe - Leibniz Institute for Information Infrastructure.  All rights reserved.
data_167573-ICSD
_database_code_ICSD 167573
_audit_creation_date 2011-02-01
_chemical_name_common 'Lithium magnesium nitride'
_chemical_formula_structural 'Li Mg N'
_chemical_formula_sum 'Li1 Mg1 N1'
_chemical_name_structure_type LiMgN
_exptl_crystal_density_diffrn 2.38
_diffrn_ambient_temperature 473.
_citation_title

;
Tunable defect structure in the Li - Mg - N ternary phase system: a powder
neutron diffraction study
;
loop_
_citation_id
_citation_journal_full
_citation_year
_citation_journal_volume
_citation_page_first
_citation_page_last
_citation_journal_id_ASTM
primary 'Chemistry of Materials' 2010 22 3174 3182 CMATEX
loop_
_citation_author_citation_id
_citation_author_name
primary 'Bailey, A.S.'
primary 'Hubberstey, P.'
primary 'Hughes, R.W.'
primary 'Ritter, C.'
primary 'Gregory, D.H.'
_cell_length_a 7.16504(17)
_cell_length_b 3.51298(7)
_cell_length_c 5.0203(1)
_cell_angle_alpha 90.
_cell_angle_beta 90.
_cell_angle_gamma 90.
_cell_volume 126.36
_cell_formula_units_Z 4
_space_group_name_H-M_alt 'P n m a'
_space_group_IT_number 62
loop_
_space_group_symop_id
_space_group_symop_operation_xyz
1 'x+1/2, y, -z+1/2'
2 'x, -y+1/2, z'
3 '-x+1/2, y+1/2, z+1/2'
4 '-x, -y, -z'
5 '-x+1/2, -y, z+1/2'
6 '-x, y+1/2, -z'
7 'x+1/2, -y+1/2, -z+1/2'
8 'x, y, z'
loop_
_atom_type_symbol
_atom_type_oxidation_number
Li1+ 1
Mg2+ 2
N3- -3
loop_
_atom_site_label
_atom_site_type_symbol
_atom_site_symmetry_multiplicity
_atom_site_Wyckoff_symbol
_atom_site_fract_x
_atom_site_fract_y
_atom_site_fract_z
_atom_site_U_iso_or_equiv
_atom_site_occupancy
Li1 Li1+ 4 c 0.0944(10) 0.25 0.5311(16) 0.0142 1.
Mg1 Mg2+ 4 c 0.1431(3) 0.25 0.0204(4) 0.0087 1.
N1 N3- 4 c 0.3782(3) 0.25 0.2711(3) 0.006 1.
#End of TTdata_167573-ICSD
#
