(C) 2022 by FIZ Karlsruhe - Leibniz Institute for Information Infrastructure.  All rights reserved.
data_423582-ICSD
_database_code_ICSD 423582
_audit_creation_date 2013-02-01
_chemical_name_common 'Lithium sodium cyanamide cyanide *'
_chemical_formula_structural '(Li1.40 Na3.60) (C N1.7)2 (C N0.85)'
_chemical_formula_sum 'C3 Li1.4 N4.25 Na3.6'
_chemical_name_structure_type Na5H(CN2)3
_exptl_crystal_density_diffrn 1.82
_diffrn_ambient_temperature 293.
_citation_title

;
Na5 [C N2]2 [C N], (Li, Na)5 [C N2]2 [C N], and K2 [C N2]: carbodiimides from
high-pressure synthesis
;
loop_
_citation_id
_citation_journal_full
_citation_year
_citation_journal_volume
_citation_page_first
_citation_page_last
_citation_journal_id_ASTM
primary 'Zeitschrift fuer Anorganische und Allgemeine Chemie (1950) (DE)' 2012
638 2111 2116 ZAACAB
loop_
_citation_author_citation_id
_citation_author_name
primary 'Zhang Shiyu'
primary 'Zherebtsov, D.A.'
primary 'DiSalvo, F.J.'
primary 'Niewa, R.'
_cell_length_a 7.0034(3)
_cell_length_b 7.0034(3)
_cell_length_c 7.0034(3)
_cell_angle_alpha 90.
_cell_angle_beta 90.
_cell_angle_gamma 90.
_cell_volume 343.5
_cell_formula_units_Z 2
_space_group_name_H-M_alt 'I m -3 m'
_space_group_IT_number 229
loop_
_space_group_symop_id
_space_group_symop_operation_xyz
1 'z, y, -x'
2 'y, x, -z'
3 'x, z, -y'
4 'z, x, -y'
5 'y, z, -x'
6 'x, y, -z'
7 'z, -y, x'
8 'y, -x, z'
9 'x, -z, y'
10 'z, -x, y'
11 'y, -z, x'
12 'x, -y, z'
13 '-z, y, x'
14 '-y, x, z'
15 '-x, z, y'
16 '-z, x, y'
17 '-y, z, x'
18 '-x, y, z'
19 '-z, -y, -x'
20 '-y, -x, -z'
21 '-x, -z, -y'
22 '-z, -x, -y'
23 '-y, -z, -x'
24 '-x, -y, -z'
25 '-z, -y, x'
26 '-y, -x, z'
27 '-x, -z, y'
28 '-z, -x, y'
29 '-y, -z, x'
30 '-x, -y, z'
31 '-z, y, -x'
32 '-y, x, -z'
33 '-x, z, -y'
34 '-z, x, -y'
35 '-y, z, -x'
36 '-x, y, -z'
37 'z, -y, -x'
38 'y, -x, -z'
39 'x, -z, -y'
40 'z, -x, -y'
41 'y, -z, -x'
42 'x, -y, -z'
43 'z, y, x'
44 'y, x, z'
45 'x, z, y'
46 'z, x, y'
47 'y, z, x'
48 'x, y, z'
49 'z+1/2, y+1/2, -x+1/2'
50 'y+1/2, x+1/2, -z+1/2'
51 'x+1/2, z+1/2, -y+1/2'
52 'z+1/2, x+1/2, -y+1/2'
53 'y+1/2, z+1/2, -x+1/2'
54 'x+1/2, y+1/2, -z+1/2'
55 'z+1/2, -y+1/2, x+1/2'
56 'y+1/2, -x+1/2, z+1/2'
57 'x+1/2, -z+1/2, y+1/2'
58 'z+1/2, -x+1/2, y+1/2'
59 'y+1/2, -z+1/2, x+1/2'
60 'x+1/2, -y+1/2, z+1/2'
61 '-z+1/2, y+1/2, x+1/2'
62 '-y+1/2, x+1/2, z+1/2'
63 '-x+1/2, z+1/2, y+1/2'
64 '-z+1/2, x+1/2, y+1/2'
65 '-y+1/2, z+1/2, x+1/2'
66 '-x+1/2, y+1/2, z+1/2'
67 '-z+1/2, -y+1/2, -x+1/2'
68 '-y+1/2, -x+1/2, -z+1/2'
69 '-x+1/2, -z+1/2, -y+1/2'
70 '-z+1/2, -x+1/2, -y+1/2'
71 '-y+1/2, -z+1/2, -x+1/2'
72 '-x+1/2, -y+1/2, -z+1/2'
73 '-z+1/2, -y+1/2, x+1/2'
74 '-y+1/2, -x+1/2, z+1/2'
75 '-x+1/2, -z+1/2, y+1/2'
76 '-z+1/2, -x+1/2, y+1/2'
77 '-y+1/2, -z+1/2, x+1/2'
78 '-x+1/2, -y+1/2, z+1/2'
79 '-z+1/2, y+1/2, -x+1/2'
80 '-y+1/2, x+1/2, -z+1/2'
81 '-x+1/2, z+1/2, -y+1/2'
82 '-z+1/2, x+1/2, -y+1/2'
83 '-y+1/2, z+1/2, -x+1/2'
84 '-x+1/2, y+1/2, -z+1/2'
85 'z+1/2, -y+1/2, -x+1/2'
86 'y+1/2, -x+1/2, -z+1/2'
87 'x+1/2, -z+1/2, -y+1/2'
88 'z+1/2, -x+1/2, -y+1/2'
89 'y+1/2, -z+1/2, -x+1/2'
90 'x+1/2, -y+1/2, -z+1/2'
91 'z+1/2, y+1/2, x+1/2'
92 'y+1/2, x+1/2, z+1/2'
93 'x+1/2, z+1/2, y+1/2'
94 'z+1/2, x+1/2, y+1/2'
95 'y+1/2, z+1/2, x+1/2'
96 'x+1/2, y+1/2, z+1/2'
loop_
_atom_type_symbol
_atom_type_oxidation_number
Na1+ 1
Li1+ 1
Na1+ 1
Li1+ 1
C3+ 2.53
N3- -3
loop_
_atom_site_label
_atom_site_type_symbol
_atom_site_symmetry_multiplicity
_atom_site_Wyckoff_symbol
_atom_site_fract_x
_atom_site_fract_y
_atom_site_fract_z
_atom_site_U_iso_or_equiv
_atom_site_occupancy
Na1 Na1+ 2 a 0. 0. 0. 0.0258(17) 0.323(14)
Li1 Li1+ 2 a 0. 0. 0. 0.0258(17) 0.68
Na2 Na1+ 8 c 0.25 0.25 0.25 0.0211(9) 0.82(2)
Li2 Li1+ 8 c 0.25 0.25 0.25 0.0211(9) 0.18
C1 C3+ 6 b 0.5 0.5 0. 0.0373(19) 1
N1 N3- 12 e 0.5 0.5 0.1687(4) 0.0300(9) 0.70(4)
loop_
_atom_site_aniso_label
_atom_site_aniso_type_symbol
_atom_site_aniso_U_11
_atom_site_aniso_U_22
_atom_site_aniso_U_33
_atom_site_aniso_U_12
_atom_site_aniso_U_13
_atom_site_aniso_U_23
Na1 Na1+ 0.0258(17) 0.0258(17) 0.0258(17) 0. 0. 0.
Li1 Li1+ 0.0258(17) 0.0258(17) 0.0258(17) 0. 0. 0.
Na2 Na1+ 0.0211(9) 0.0211(9) 0.0211(9) 0.00064(17) 0.00064(17) 0.00064(17)
Li2 Li1+ 0.0211(9) 0.0211(9) 0.0211(9) 0.00064(17) 0.00064(17) 0.00064(17)
C1 C3+ 0.0230(19) 0.0230(19) 0.066(3) 0. 0. 0.
N1 N3- 0.0232(10) 0.0232(10) 0.0435(18) 0. 0. 0.
#End of TTdata_423582-ICSD
#
