(C) 2022 by FIZ Karlsruhe - Leibniz Institute for Information Infrastructure.  All rights reserved.
data_191547-ICSD
_database_code_ICSD 191547
_audit_creation_date 2014-08-01
_chemical_name_common 'Lithium manganese silicate phosphate (2/0.9/0.8/0.2)'
_chemical_formula_structural 'Li2 Mn0.9 ((Si0.8 P0.2) O4)'
_chemical_formula_sum 'Li2 Mn0.9 O4 P0.2 Si0.8'
_chemical_name_structure_type Li3PO4
_exptl_crystal_density_diffrn 3.05
_diffrn_ambient_temperature 293.
_citation_title

;
Li2 Mn Si O4 cathodes modified by phosphorous substitution and the structural
consequences
;
loop_
_citation_id
_citation_journal_full
_citation_year
_citation_journal_volume
_citation_page_first
_citation_page_last
_citation_journal_id_ASTM
primary 'Solid State Ionics' 2014 259 29 39 SSIOD3
loop_
_citation_author_citation_id
_citation_author_name
primary 'Gummow, Rosalind J.'
primary 'Han, Guihong'
primary 'Sharma, Neeraj'
primary 'He, Yinghe'
_cell_length_a 6.3152(1)
_cell_length_b 10.7695(3)
_cell_length_c 4.9948(1)
_cell_angle_alpha 90.
_cell_angle_beta 90.
_cell_angle_gamma 90.
_cell_volume 339.7
_cell_formula_units_Z 4
_space_group_name_H-M_alt 'P m n b'
_space_group_IT_number 62
loop_
_space_group_symop_id
_space_group_symop_operation_xyz
1 'x, y+1/2, -z+1/2'
2 '-x+1/2, y, z'
3 'x+1/2, -y+1/2, z+1/2'
4 '-x, -y, -z'
5 '-x, -y+1/2, z+1/2'
6 'x+1/2, -y, -z'
7 '-x+1/2, y+1/2, -z+1/2'
8 'x, y, z'
loop_
_atom_type_symbol
_atom_type_oxidation_number
Li1+ 1
Mn2+ 2
Si4+ 4
P5+ 5
O2- -2
loop_
_atom_site_label
_atom_site_type_symbol
_atom_site_symmetry_multiplicity
_atom_site_Wyckoff_symbol
_atom_site_fract_x
_atom_site_fract_y
_atom_site_fract_z
_atom_site_U_iso_or_equiv
_atom_site_occupancy
Li1 Li1+ 8 d -0.008(1) 0.335(1) 0.283(1) 0.005 1.
Mn1 Mn2+ 4 c 0.25 0.586(1) 0.256(1) 0.01 0.897(1)
Si1 Si4+ 4 c 0.25 0.413(1) 0.706(1) 0.045(1) 0.8
P1 P5+ 4 c 0.25 0.413(1) 0.706(1) 0.034(2) 0.2
O1 O2- 4 c 0.25 0.561(1) 0.775(1) 0.024(2) 1.
O2 O2- 4 c 0.25 0.409(1) 0.339(1) 0.024(2) 1.
O3 O2- 8 d 0.022(1) 0.334(1) 0.813(0) 0.024(2) 1.
#End of TTdata_191547-ICSD
#
