(C) 2022 by FIZ Karlsruhe - Leibniz Institute for Information Infrastructure.  All rights reserved.
data_262720-ICSD
_database_code_ICSD 262720
_audit_creation_date 2012-08-01
_chemical_name_common 'Dilithium manganese orthosilicate'
_chemical_formula_structural 'Li2 Mn Si O4'
_chemical_formula_sum 'Li2 Mn1 O4 Si1'
_chemical_name_structure_type Li3PO4
_exptl_crystal_density_diffrn 3.15
_citation_title 'Crystal chemistry of the Pmnb polymorph of Li2 Mn Si O4'
loop_
_citation_id
_citation_journal_full
_citation_year
_citation_journal_volume
_citation_page_first
_citation_page_last
_citation_journal_id_ASTM
primary 'Journal of Solid State Chemistry' 2012 188 32 37 JSSCBI
loop_
_citation_author_citation_id
_citation_author_name
primary 'Gummow, R.J.'
primary 'Sharma, N.'
primary 'Peterson, V.K.'
primary 'He, Y.'
_cell_length_a 6.306938(25)
_cell_length_b 10.75355(4)
_cell_length_c 5.008629(23)
_cell_angle_alpha 90.
_cell_angle_beta 90.
_cell_angle_gamma 90.
_cell_volume 339.7
_cell_formula_units_Z 4
_space_group_name_H-M_alt 'P m n b'
_space_group_IT_number 62
loop_
_space_group_symop_id
_space_group_symop_operation_xyz
1 'x, y+1/2, -z+1/2'
2 '-x+1/2, y, z'
3 'x+1/2, -y+1/2, z+1/2'
4 '-x, -y, -z'
5 '-x, -y+1/2, z+1/2'
6 'x+1/2, -y, -z'
7 '-x+1/2, y+1/2, -z+1/2'
8 'x, y, z'
loop_
_atom_type_symbol
_atom_type_oxidation_number
Li1+ 1
Mn2+ 2
Si4+ 4
O2- -2
loop_
_atom_site_label
_atom_site_type_symbol
_atom_site_symmetry_multiplicity
_atom_site_Wyckoff_symbol
_atom_site_fract_x
_atom_site_fract_y
_atom_site_fract_z
_atom_site_U_iso_or_equiv
_atom_site_occupancy
Li1 Li1+ 8 d 0.5077(8) 0.9129(4) 0.3133(10) 0.0255(10) 1.
Mn1 Mn2+ 4 c 0.25 0.1653(1) 0.1942(2) 0.0078(1) 1.
Si1 Si4+ 4 c 0.25 0.3386(1) 0.6790(3) 0.0139(33) 1.
O1 O2- 4 c 0.25 0.3433(2) 0.3417(4) 0.0119(5) 1.
O2 O2- 8 d 0.0366(2) 0.0907(1) 0.2848(3) 0.0078(4) 1.
O3 O2- 4 c 0.25 0.1926(2) 0.7574(4) 0.0061(5) 1.
#End of TTdata_262720-ICSD
#
