(C) 2022 by FIZ Karlsruhe - Leibniz Institute for Information Infrastructure.  All rights reserved.
data_20208-ICSD
_database_code_ICSD 20208
_audit_creation_date 1980-01-01
_audit_update_record 2012-08-01
_chemical_name_common 'Trilithium phosphate(V) - gamma'
_chemical_formula_structural 'Li3 (P O4)'
_chemical_formula_sum 'Li3 O4 P1'
_chemical_name_structure_type Li3PO4
_exptl_crystal_density_diffrn 2.43
_citation_title

;
The crystal structure of the synthetic analogue of the lithiophospate Li3 P O4
-gamma
;
loop_
_citation_id
_citation_journal_full
_citation_year
_citation_journal_volume
_citation_page_first
_citation_page_last
_citation_journal_id_ASTM
primary 'Doklady Akademii Nauk SSSR' 1978 240 75 77 DANKAS
loop_
_citation_author_citation_id
_citation_author_name
primary 'Bondareva, O.S.'
primary 'Simonov, M.A.'
primary 'Belov, N.V.'
_cell_length_a 4.926(3)
_cell_length_b 6.129(1)
_cell_length_c 10.483(4)
_cell_angle_alpha 90.
_cell_angle_beta 90.
_cell_angle_gamma 90.
_cell_volume 316.5
_cell_formula_units_Z 4
_space_group_name_H-M_alt 'P c m n'
_space_group_IT_number 62
loop_
_space_group_symop_id
_space_group_symop_operation_xyz
1 '-x+1/2, y, z+1/2'
2 'x, -y+1/2, z'
3 'x+1/2, y+1/2, -z+1/2'
4 '-x, -y, -z'
5 'x+1/2, -y, -z+1/2'
6 '-x, y+1/2, -z'
7 '-x+1/2, -y+1/2, z+1/2'
8 'x, y, z'
loop_
_atom_type_symbol
_atom_type_oxidation_number
Li1+ 1
P5+ 5
O2- -2
loop_
_atom_site_label
_atom_site_type_symbol
_atom_site_symmetry_multiplicity
_atom_site_Wyckoff_symbol
_atom_site_fract_x
_atom_site_fract_y
_atom_site_fract_z
_atom_site_B_iso_or_equiv
_atom_site_occupancy
Li1 Li1+ 8 d 0.303(1) 0.5013(9) 0.1635(5) . 1.
Li2 Li1+ 4 c 0.206(2) 0.75 0.4233(8) . 1.
P1 P5+ 4 c 0.3088(2) 0.25 0.4114(1) . 1.
O1 O2- 8 d 0.2038(5) 0.0445(3) 0.3417(2) . 1.
O2 O2- 4 c 0.2941(7) 0.25 0.0500(3) . 1.
O3 O2- 4 c 0.1193(6) 0.75 0.0900(3) . 1.
loop_
_atom_site_aniso_label
_atom_site_aniso_type_symbol
_atom_site_aniso_B_11
_atom_site_aniso_B_22
_atom_site_aniso_B_33
_atom_site_aniso_B_12
_atom_site_aniso_B_13
_atom_site_aniso_B_23
Li1 Li1+ 1.4(2) 0.8(2) 0.8(2) 0.0(2) 0.0(2) 0
Li2 Li1+ 1.9(4) 0.7(3) 0.9(3) 0 -.2(3) 0
P1 P5+ 0.34(3) 0.4(3) 0.38(3) 0 0.03(4) 0
O1 O2- 0.86(7) 0.60(6) 0.62(6) -.20(7) 0 -.15(7)
O2 O2- 1.1(1) 0.61(9) 0.35(8) 0 -.2(1) 0
O3 O2- 0.50(9) 0.7(1) 0.7(1) 0 -.1(9) 0
#End of TTdata_20208-ICSD
#
