(C) 2022 by FIZ Karlsruhe - Leibniz Institute for Information Infrastructure.  All rights reserved.
data_427086-ICSD
_database_code_ICSD 427086
_audit_creation_date 2014-08-01
_chemical_name_common 'Copper(I) orthophosphate'
_chemical_formula_structural 'Cu3 (P O4)'
_chemical_formula_sum 'Cu3 O4 P1'
_exptl_crystal_density_diffrn 5.13
_diffrn_ambient_temperature 296.
_citation_title

;
Lithium Copper(I) orthophosphates Li3-x Cux P O4: Synthesis, crystal
structures, and electrochemical properties
;
loop_
_citation_id
_citation_journal_full
_citation_year
_citation_journal_volume
_citation_page_first
_citation_page_last
_citation_journal_id_ASTM
primary 'Zeitschrift fuer Anorganische und Allgemeine Chemie (1950) (DE)' 2014
640 944 951 ZAACAB
loop_
_citation_author_citation_id
_citation_author_name
primary 'Snyder, Katharina'
primary 'Raguz, Branimir'
primary 'Hoffbauer, Wilfried'
primary 'Glaum, Robert'
primary 'Ehrenberg, Hartmut'
primary 'Herklotz, Markus'
_cell_length_a 6.284(3)
_cell_length_b 6.284(3)
_cell_length_c 5.408(5)
_cell_angle_alpha 90.
_cell_angle_beta 90.
_cell_angle_gamma 120.
_cell_volume 184.94
_cell_formula_units_Z 2
_space_group_name_H-M_alt 'P -3'
_space_group_IT_number 147
loop_
_space_group_symop_id
_space_group_symop_operation_xyz
1 'x-y, x, -z'
2 'y, -x+y, -z'
3 '-x, -y, -z'
4 '-x+y, -x, z'
5 '-y, x-y, z'
6 'x, y, z'
loop_
_atom_type_symbol
_atom_type_oxidation_number
Cu1+ 1
P5+ 5
O2- -2
loop_
_atom_site_label
_atom_site_type_symbol
_atom_site_symmetry_multiplicity
_atom_site_Wyckoff_symbol
_atom_site_fract_x
_atom_site_fract_y
_atom_site_fract_z
_atom_site_U_iso_or_equiv
_atom_site_occupancy
Cu1 Cu1+ 6 g 0.7178(3) 0.8586(2) 0.2475(3) 0.0253(4) 1
P1 P5+ 2 d 0.6667 1.3333 0.3109(6) 0.0118(7) 1
O1 O2- 6 g 0.7996(11) 1.2005(11) 0.2126(11) 0.0238(12) 1
O2 O2- 2 d 0.6667 1.3333 0.5960(17) 0.0174(16) 1
#End of TTdata_427086-ICSD
#
