(C) 2022 by FIZ Karlsruhe - Leibniz Institute for Information Infrastructure.  All rights reserved.
data_53684-ICSD
_database_code_ICSD 53684
_audit_creation_date 2023-02-01
_chemical_name_common 'Lithium iron phosphate'
_chemical_formula_structural 'Li Fe (P O4)'
_chemical_formula_sum 'Fe1 Li1 O4 P1'
_chemical_name_structure_type Olivine#Mg2SiO4
_exptl_crystal_density_diffrn 3.59
_citation_title

;
The influence of the Li$^+$ addition rate during the hydrothermal synthesis of
LiFePO$_4$ on the average and local structure
;
loop_
_citation_id
_citation_journal_full
_citation_year
_citation_journal_volume
_citation_page_first
_citation_page_last
_citation_journal_id_ASTM
primary 'Dalton Transactions' 2022 51 18176 18186 DTARAF
loop_
_citation_author_citation_id
_citation_author_name
primary 'Thiebaut, Michelle'
primary 'Billing, Caren'
primary 'Naidoo, Deena'
primary 'Billing, David G.'
_cell_length_a 10.349(3)
_cell_length_b 5.9947(2)
_cell_length_c 4.7064(1)
_cell_angle_alpha 90
_cell_angle_beta 90
_cell_angle_gamma 90
_cell_volume 291.98
_cell_formula_units_Z 4
_space_group_name_H-M_alt 'P n m a'
_space_group_IT_number 62
loop_
_space_group_symop_id
_space_group_symop_operation_xyz
1 'x+1/2, y, -z+1/2'
2 'x, -y+1/2, z'
3 '-x+1/2, y+1/2, z+1/2'
4 '-x, -y, -z'
5 '-x+1/2, -y, z+1/2'
6 '-x, y+1/2, -z'
7 'x+1/2, -y+1/2, -z+1/2'
8 'x, y, z'
loop_
_atom_type_symbol
_atom_type_oxidation_number
Fe2+ 2
P5+ 5
O2- -2
Li1+ 1
Fe2+ 2
loop_
_atom_site_label
_atom_site_type_symbol
_atom_site_symmetry_multiplicity
_atom_site_Wyckoff_symbol
_atom_site_fract_x
_atom_site_fract_y
_atom_site_fract_z
_atom_site_B_iso_or_equiv
_atom_site_occupancy
Fe1 Fe2+ 4 c 0.28114 0.25 0.97448 0.51253 0.99035
P1 P5+ 4 c 0.09424 0.25 0.41476 1.5 1
O1 O2- 4 c 0.09722 0.25 0.74255 0.6624 1
O2 O2- 4 c 0.44785 0.25 0.21201 0.59955 1
O3 O2- 8 d 0.16739 0.04047 0.27862 0.50122 1
Li1 Li1+ 4 a 0 0 0 1.48703 0.91183
Fe2 Fe2+ 4 a 0 0 0 1.5 0.08817
#End of TTdata_53684-ICSD
#
