(C) 2022 by FIZ Karlsruhe - Leibniz Institute for Information Infrastructure.  All rights reserved.
data_78513-ICSD
_database_code_ICSD 78513
_audit_creation_date 1996-10-14
_chemical_name_common 'Lithium gallium germanate - gamma (2.5/0.5/1)'
_chemical_formula_structural 'Li2.5 Ga0.5 Ge O4'
_chemical_formula_sum 'Ga0.5 Ge1 Li2.5 O4'
_chemical_name_structure_type Li3PO4
_exptl_crystal_density_diffrn 3.62
_citation_title
'Polymorphism and crystal chemistry of Li2.5 Ga0.5 Ge O4 an Li3 P O4 analogue'
loop_
_citation_id
_citation_journal_full
_citation_year
_citation_journal_volume
_citation_page_first
_citation_page_last
_citation_journal_id_ASTM
primary 'Journal of Materials Chemistry' 1994 4 457 462 JMACEP
loop_
_citation_author_citation_id
_citation_author_name
primary 'Robertson, A.D.'
primary 'West, A.R.'
_cell_length_a 6.3683(4)
_cell_length_b 10.7462(7)
_cell_length_c 5.0681(4)
_cell_angle_alpha 90.
_cell_angle_beta 90.
_cell_angle_gamma 90.
_cell_volume 346.84
_cell_formula_units_Z 4
_space_group_name_H-M_alt 'P m n b'
_space_group_IT_number 62
loop_
_space_group_symop_id
_space_group_symop_operation_xyz
1 'x, y+1/2, -z+1/2'
2 '-x+1/2, y, z'
3 'x+1/2, -y+1/2, z+1/2'
4 '-x, -y, -z'
5 '-x, -y+1/2, z+1/2'
6 'x+1/2, -y, -z'
7 '-x+1/2, y+1/2, -z+1/2'
8 'x, y, z'
loop_
_atom_type_symbol
_atom_type_oxidation_number
Ge4+ 4
O2- -2
Li1+ 1
Ga3+ 3
Li1+ 1
Ga3+ 3
loop_
_atom_site_label
_atom_site_type_symbol
_atom_site_symmetry_multiplicity
_atom_site_Wyckoff_symbol
_atom_site_fract_x
_atom_site_fract_y
_atom_site_fract_z
_atom_site_U_iso_or_equiv
_atom_site_occupancy
Ge1 Ge4+ 4 c 0.25 0.4131(5) 0.320(1) 0.009(2) 1.
O1 O2- 8 d 0.026(3) 0.334(2) 0.216(4) 0.011(7) 1.
O2 O2- 4 c 0.75 0.088(3) 0.165(6) 0.015(8) 1.
O3 O2- 4 c 0.25 0.065(3) 0.281(5) 0.03(1) 1.
Li1 Li1+ 4 c 0.75 0.417(7) 0.215(13) 0.009(21) 0.995
Ga1 Ga3+ 4 c 0.75 0.417(7) 0.215(13) 0.009(21) 0.005
Li2 Li1+ 8 d -.002(2) 0.165(1) 0.315(3) 0.001(4) 0.753
Ga2 Ga3+ 8 d -.002(2) 0.165(1) 0.315(3) 0.001(4) 0.247
#End of TTdata_78513-ICSD
#
