(C) 2022 by FIZ Karlsruhe - Leibniz Institute for Information Infrastructure.  All rights reserved.
data_426052-ICSD
_database_code_ICSD 426052
_audit_creation_date 2014-08-01
_chemical_name_common 'Lithium copper orthophosphate (2.37/0.63/1)'
_chemical_formula_structural '(Cu2.37 Li0.63) (P O4)'
_chemical_formula_sum 'Cu2.37 Li0.63 O4 P1'
_exptl_crystal_density_diffrn 4.62
_diffrn_ambient_temperature 296.
_citation_title

;
Lithium Copper(I) orthophosphates Li3-x Cux P O4: Synthesis, crystal
structures, and electrochemical properties
;
loop_
_citation_id
_citation_journal_full
_citation_year
_citation_journal_volume
_citation_page_first
_citation_page_last
_citation_journal_id_ASTM
primary 'Zeitschrift fuer Anorganische und Allgemeine Chemie (1950) (DE)' 2014
640 944 951 ZAACAB
loop_
_citation_author_citation_id
_citation_author_name
primary 'Snyder, Katharina'
primary 'Raguz, Branimir'
primary 'Hoffbauer, Wilfried'
primary 'Glaum, Robert'
primary 'Ehrenberg, Hartmut'
primary 'Herklotz, Markus'
_cell_length_a 6.2231(13)
_cell_length_b 6.2231(13)
_cell_length_c 5.3629(5)
_cell_angle_alpha 90.
_cell_angle_beta 90.
_cell_angle_gamma 120.
_cell_volume 179.86
_cell_formula_units_Z 2
_space_group_name_H-M_alt 'P -3'
_space_group_IT_number 147
loop_
_space_group_symop_id
_space_group_symop_operation_xyz
1 'x-y, x, -z'
2 'y, -x+y, -z'
3 '-x, -y, -z'
4 '-x+y, -x, z'
5 '-y, x-y, z'
6 'x, y, z'
loop_
_atom_type_symbol
_atom_type_oxidation_number
Cu1+ 1
Li1+ 1
P5+ 5
O2- -2
loop_
_atom_site_label
_atom_site_type_symbol
_atom_site_symmetry_multiplicity
_atom_site_Wyckoff_symbol
_atom_site_fract_x
_atom_site_fract_y
_atom_site_fract_z
_atom_site_U_iso_or_equiv
_atom_site_occupancy
Cu1 Cu1+ 6 g 0.7178(3) 0.8586(2) 0.2475(3) 0.0253(4) 0.789(13)
Li1 Li1+ 6 g 0.7178(3) 0.8586(2) 0.2475(3) 0.0253(4) 0.211(13)
P1 P5+ 2 d 0.6667 1.3333 0.3109(6) 0.0118(7) 1
O1 O2- 6 g 0.7996(11) 1.2005(11) 0.2126(11) 0.0238(12) 1
O2 O2- 2 d 0.6667 1.3333 0.5960(17) 0.0174(16) 1
loop_
_atom_site_aniso_label
_atom_site_aniso_type_symbol
_atom_site_aniso_U_11
_atom_site_aniso_U_22
_atom_site_aniso_U_33
_atom_site_aniso_U_12
_atom_site_aniso_U_13
_atom_site_aniso_U_23
Cu1 Cu1+ 0.0323(7) 0.0205(6) 0.0260(6) 0.0155(5) 0.0066(5) 0.0036(4)
Li1 Li1+ 0.0323(7) 0.0205(6) 0.0260(6) 0.0155(5) 0.0066(5) 0.0036(4)
P1 P5+ 0.0105(8) 0.0105(8) 0.0145(12) 0.0052(4) 0. 0.
O1 O2- 0.023(3) 0.021(2) 0.031(3) 0.014(2) 0.007(2) -0.004(2)
O2 O2- 0.019(2) 0.019(2) 0.013(3) 0.0097(12) 0. 0.
#End of TTdata_426052-ICSD
#
