(C) 2022 by FIZ Karlsruhe - Leibniz Institute for Information Infrastructure.  All rights reserved.
data_114254-ICSD
_database_code_ICSD 114254
_audit_creation_date 2022-08-01
_chemical_name_common 'Trilithium phosphate'
_chemical_formula_structural 'Li3 (P O4)'
_chemical_formula_sum 'Li3 O4 P1'
_chemical_name_structure_type Enargite#Cu3AsS4
_exptl_crystal_density_diffrn 2.48
_diffrn_ambient_temperature 3.
_citation_title

;
Visualizing lithium ions in the crystal structure of Li\(_3\)PO\(_4\) by in
situ neutron diffraction
;
loop_
_citation_id
_citation_journal_full
_citation_year
_citation_journal_volume
_citation_page_first
_citation_page_last
_citation_journal_id_ASTM
primary 'Journal of Applied Crystallography' 2021 54 1409 1415 JACGAR
loop_
_citation_author_citation_id
_citation_author_name
primary 'Manawan, Maykel'
primary 'Kartini, Evvy'
primary 'Avdeev, Maxim'
_cell_length_a 6.0965(2)
_cell_length_b 5.2315(2)
_cell_length_c 4.8567(2)
_cell_angle_alpha 90
_cell_angle_beta 90
_cell_angle_gamma 90
_cell_volume 154.9
_cell_formula_units_Z 2
_space_group_name_H-M_alt 'P m n 21'
_space_group_IT_number 31
loop_
_space_group_symop_id
_space_group_symop_operation_xyz
1 'x+1/2, -y, z+1/2'
2 '-x+1/2, -y, z+1/2'
3 '-x, y, z'
4 'x, y, z'
loop_
_atom_type_symbol
_atom_type_oxidation_number
O2- -2
Li1+ 1
O2- -2
P5+ 5
O2- -2
Li1+ 1
loop_
_atom_site_label
_atom_site_type_symbol
_atom_site_symmetry_multiplicity
_atom_site_Wyckoff_symbol
_atom_site_fract_x
_atom_site_fract_y
_atom_site_fract_z
_atom_site_B_iso_or_equiv
_atom_site_occupancy
O1 O2- 4 b 0.2435 0.1646 0.1199 0.10817 1
Li1 Li1+ 4 b 0.2536 0.15102 0.50611 0.27346 1
O2 O2- 2 a 0 0.3225 0.6411 0.1105 1
P1 P5+ 2 a 0 0.3277 0 0.04289 1
O3 O2- 2 a 0 0.6474 0.1255 0.12633 1
Li2 Li1+ 2 a 0 0.65 0.5 0.25739 1
loop_
_atom_site_aniso_label
_atom_site_aniso_type_symbol
_atom_site_aniso_U_11
_atom_site_aniso_U_22
_atom_site_aniso_U_33
_atom_site_aniso_U_12
_atom_site_aniso_U_13
_atom_site_aniso_U_23
Li1 Li1+ 0.0032(11) 0.0033(10) 0.0037(9) 0.0001(3) 0.0001(3) -0.0002(1)
Li2 Li1+ 0.0031(6) 0.0032(4) 0.0035(11) 0.0000(0) 0.0000(0) 0.0002(3)
#End of TTdata_114254-ICSD
#
