(C) 2022 by FIZ Karlsruhe - Leibniz Institute for Information Infrastructure.  All rights reserved.
data_257439-ICSD
_database_code_ICSD 257439
_audit_creation_date 2018-02-01
_chemical_name_common 'Lithium phosphate - beta phase'
_chemical_formula_structural 'Li3 P O4'
_chemical_formula_sum 'Li3 O4 P1'
_chemical_name_structure_type Enargite#Cu3AsS4
_exptl_crystal_density_diffrn 2.45
_citation_title

;
Crystal structure analysis of Li3PO4 powder prepared by wet chemical reaction
and solid-state reaction by using X-ray diffraction (XRD)
;
loop_
_citation_id
_citation_journal_full
_citation_year
_citation_journal_volume
_citation_page_first
_citation_page_last
_citation_journal_id_ASTM
primary Ionics 2016 22 1051 1057 IONIFA
loop_
_citation_author_citation_id
_citation_author_name
primary 'Ayu, Nur I.P.'
primary 'Kartini, Evvy'
primary 'Prayogi, Lugas D.'
primary 'Faisal, Muhamad'
primary Supardi
_cell_length_a 6.1295(2)
_cell_length_b 5.2546(2)
_cell_length_c 4.8705(1)
_cell_angle_alpha 90.
_cell_angle_beta 90.
_cell_angle_gamma 90.
_cell_volume 156.87
_cell_formula_units_Z 2
_space_group_name_H-M_alt 'P m n 21'
_space_group_IT_number 31
loop_
_space_group_symop_id
_space_group_symop_operation_xyz
1 'x+1/2, -y, z+1/2'
2 '-x+1/2, -y, z+1/2'
3 '-x, y, z'
4 'x, y, z'
loop_
_atom_type_symbol
_atom_type_oxidation_number
Li1+ 1
P5+ 5
O2- -2
loop_
_atom_site_label
_atom_site_type_symbol
_atom_site_symmetry_multiplicity
_atom_site_Wyckoff_symbol
_atom_site_fract_x
_atom_site_fract_y
_atom_site_fract_z
_atom_site_U_iso_or_equiv
_atom_site_occupancy
Li1 Li1+ 4 b 0.2473(13) 0.3270(18) 1.0128(30) 0 1.
Li2 Li1+ 2 a 0.5 0.8240(29) 0.9861(83) 0.0364(67) 1.
P1 P5+ 2 a 0. 0.8262(4) -0.0096(7) 0.0034(12) 1.
O1 O2- 4 b 0.2069(5) 0.6849(6) 0.9027(9) 0.0038(20) 1.
O2 O2- 2 a 0. 0.1104(10) 0.8959(13) 0.0022(16) 1.
O3 O2- 2 a 0.5 0.1852(8) 0.8131(7) 0 1.
#End of TTdata_257439-ICSD
#
