(C) 2022 by FIZ Karlsruhe - Leibniz Institute for Information Infrastructure.  All rights reserved.
data_416889-ICSD
_database_code_ICSD 416889
_audit_creation_date 2008-02-01
_chemical_name_common 'Lithium strontium phosphide'
_chemical_formula_structural 'Li Sr P'
_chemical_formula_sum 'Li1 P1 Sr1'
_chemical_name_structure_type ZrBeSi
_exptl_crystal_density_diffrn 3.16
_diffrn_ambient_temperature 167.
_citation_title

;
Synthesis and single crystal structures of ternary phosphides Li4 Sr P2 and A
Ae P (A = Li, Na; Ae = Sr, Ba)
;
loop_
_citation_id
_citation_journal_full
_citation_year
_citation_journal_volume
_citation_page_first
_citation_page_last
_citation_journal_id_ASTM
primary 'Journal of Solid State Chemistry' 2007 180 432 439 JSSCBI
loop_
_citation_author_citation_id
_citation_author_name
primary 'Dong Yong-Kwan'
primary 'DiSalvo, F.J.'
_cell_length_a 4.3674(3)
_cell_length_b 4.3674(3)
_cell_length_c 7.9802(11)
_cell_angle_alpha 90
_cell_angle_beta 90
_cell_angle_gamma 120
_cell_volume 131.82
_cell_formula_units_Z 2
_space_group_name_H-M_alt 'P 63/m m c'
_space_group_IT_number 194
loop_
_space_group_symop_id
_space_group_symop_operation_xyz
1 'x, x-y, -z+1/2'
2 '-x+y, y, -z+1/2'
3 '-y, -x, -z+1/2'
4 '-x+y, -x, -z+1/2'
5 '-y, x-y, -z+1/2'
6 'x, y, -z+1/2'
7 '-x, -x+y, z+1/2'
8 'x-y, -y, z+1/2'
9 'y, x, z+1/2'
10 'x-y, x, z+1/2'
11 'y, -x+y, z+1/2'
12 '-x, -y, z+1/2'
13 '-x, -x+y, -z'
14 'x-y, -y, -z'
15 'y, x, -z'
16 'x-y, x, -z'
17 'y, -x+y, -z'
18 '-x, -y, -z'
19 'x, x-y, z'
20 '-x+y, y, z'
21 '-y, -x, z'
22 '-x+y, -x, z'
23 '-y, x-y, z'
24 'x, y, z'
loop_
_atom_type_symbol
_atom_type_oxidation_number
Li1+ 1
Sr2+ 2
P3- -3
loop_
_atom_site_label
_atom_site_type_symbol
_atom_site_symmetry_multiplicity
_atom_site_Wyckoff_symbol
_atom_site_fract_x
_atom_site_fract_y
_atom_site_fract_z
_atom_site_U_iso_or_equiv
_atom_site_occupancy
Li1 Li1+ 2 c 0.3333 0.6667 0.25 0.0165(8) 1
Sr1 Sr2+ 2 a 0. 0. 0. 0.00590(5) 1
P1 P3- 2 d 0.3333 0.6667 0.75 0.00528(8) 1
loop_
_atom_site_aniso_label
_atom_site_aniso_type_symbol
_atom_site_aniso_U_11
_atom_site_aniso_U_22
_atom_site_aniso_U_33
_atom_site_aniso_U_12
_atom_site_aniso_U_13
_atom_site_aniso_U_23
Li1 Li1+ 0.0129(11) 0.0129(11) 0.0236(19) 0.0064(6) 0. 0.
Sr1 Sr2+ 0.00613(6) 0.00613(6) 0.00546(7) 0.00306(3) 0. 0.
P1 P3- 0.00433(12) 0.00433(12) 0.00719(17) 0.00217(6) 0. 0.
#End of TTdata_416889-ICSD
#
