(C) 2022 by FIZ Karlsruhe - Leibniz Institute for Information Infrastructure.  All rights reserved.
data_109092-ICSD
_database_code_ICSD 109092
_audit_creation_date 2007-04-01
_chemical_name_common 'Trilithium vanadate'
_chemical_formula_structural 'Li3 (V O4)'
_chemical_formula_sum 'Li3 O4 V1'
_chemical_name_structure_type Li3PO4
_exptl_crystal_density_diffrn 2.6
_citation_title

;
On the structure of some compounds Li3 Me(5+) O4 and some other mixed metal
oxides containing lithium
;
loop_
_citation_id
_citation_journal_full
_citation_year
_citation_journal_volume
_citation_page_first
_citation_page_last
_citation_journal_id_ASTM
primary 'Zeitschrift fuer Anorganische und Allgemeine Chemie (1950) (DE)' 1964
331 44 50 ZAACAB
loop_
_citation_author_citation_id
_citation_author_name
primary 'Blasse, G.'
_cell_length_a 4.97
_cell_length_b 6.4
_cell_length_c 10.9
_cell_angle_alpha 90.
_cell_angle_beta 90.
_cell_angle_gamma 90.
_cell_volume 346.71
_cell_formula_units_Z 4
_space_group_name_H-M_alt 'P c m n'
_space_group_IT_number 62
loop_
_space_group_symop_id
_space_group_symop_operation_xyz
1 '-x+1/2, y, z+1/2'
2 'x, -y+1/2, z'
3 'x+1/2, y+1/2, -z+1/2'
4 '-x, -y, -z'
5 'x+1/2, -y, -z+1/2'
6 '-x, y+1/2, -z'
7 '-x+1/2, -y+1/2, z+1/2'
8 'x, y, z'
loop_
_atom_type_symbol
_atom_type_oxidation_number
Li1+ 1
V5+ 5
O2- -2
loop_
_atom_site_label
_atom_site_type_symbol
_atom_site_symmetry_multiplicity
_atom_site_Wyckoff_symbol
_atom_site_fract_x
_atom_site_fract_y
_atom_site_fract_z
_atom_site_B_iso_or_equiv
_atom_site_occupancy
Li1 Li1+ 8 d 0.303 0.501 0.164 . 1.
Li2 Li1+ 4 c 0.206 0.75 0.423 . 1.
V1 V5+ 4 c 0.309 0.25 0.411 . 1.
O1 O2- 8 d 0.204 0.044 0.342 . 1.
O2 O2- 4 c 0.294 0.25 0.05 . 1.
O3 O2- 4 c 0.119 0.75 0.09 . 1.
#End of TTdata_109092-ICSD
#
