(C) 2022 by FIZ Karlsruhe - Leibniz Institute for Information Infrastructure.  All rights reserved.
data_426050-ICSD
_database_code_ICSD 426050
_audit_creation_date 2014-08-01
_chemical_name_common 'Lithium copper orthophosphate (2.6/0.4/1)'
_chemical_formula_structural '(Li2.6 Cu0.4) (P O4)'
_chemical_formula_sum 'Cu0.4 Li2.6 O4 P1'
_chemical_name_structure_type Li3PO4
_exptl_crystal_density_diffrn 2.85
_diffrn_ambient_temperature 296.
_citation_title

;
Lithium Copper(I) orthophosphates Li3-x Cux P O4: Synthesis, crystal
structures, and electrochemical properties
;
loop_
_citation_id
_citation_journal_full
_citation_year
_citation_journal_volume
_citation_page_first
_citation_page_last
_citation_journal_id_ASTM
primary 'Zeitschrift fuer Anorganische und Allgemeine Chemie (1950) (DE)' 2014
640 944 951 ZAACAB
loop_
_citation_author_citation_id
_citation_author_name
primary 'Snyder, Katharina'
primary 'Raguz, Branimir'
primary 'Hoffbauer, Wilfried'
primary 'Glaum, Robert'
primary 'Ehrenberg, Hartmut'
primary 'Herklotz, Markus'
_cell_length_a 10.4946(3)
_cell_length_b 6.1690(3)
_cell_length_c 4.9854(2)
_cell_angle_alpha 90.
_cell_angle_beta 90.
_cell_angle_gamma 90.
_cell_volume 322.76
_cell_formula_units_Z 4
_space_group_name_H-M_alt 'P n m a'
_space_group_IT_number 62
loop_
_space_group_symop_id
_space_group_symop_operation_xyz
1 'x+1/2, y, -z+1/2'
2 'x, -y+1/2, z'
3 '-x+1/2, y+1/2, z+1/2'
4 '-x, -y, -z'
5 '-x+1/2, -y, z+1/2'
6 '-x, y+1/2, -z'
7 'x+1/2, -y+1/2, -z+1/2'
8 'x, y, z'
loop_
_atom_type_symbol
_atom_type_oxidation_number
P5+ 5
O2- -2
Li1+ 1
Cu1+ 1
Li1+ 1
Cu1+ 1
loop_
_atom_site_label
_atom_site_type_symbol
_atom_site_symmetry_multiplicity
_atom_site_Wyckoff_symbol
_atom_site_fract_x
_atom_site_fract_y
_atom_site_fract_z
_atom_site_U_iso_or_equiv
_atom_site_occupancy
P1 P5+ 4 c -0.08911(3) 0.25 0.80773(7) 0.00845(10) 1
O1 O2- 4 c 0.40697(10) 0.25 0.3827(2) 0.01224(19) 1
O2 O2- 4 c 0.05012(10) 0.25 0.7122(2) 0.0152(2) 1
O3 O2- 8 d 0.34121(7) 0.04670(13) 0.79817(14) 0.01228(15) 1
Li1 Li1+ 4 c 0.59486(6) 0.25 0.23645(13) 0.02082(18) 0.6616(15)
Cu1 Cu1+ 4 c 0.59486(6) 0.25 0.23645(13) 0.02082(18) 0.3384(15)
Li2 Li1+ 8 d 0.33590(13) -0.0003(2) 0.2017(3) 0.0170(5) 0.9690(11)
Cu2 Cu1+ 8 d 0.33590(13) -0.0003(2) 0.2017(3) 0.0170(5) 0.0310(11)
loop_
_atom_site_aniso_label
_atom_site_aniso_type_symbol
_atom_site_aniso_U_11
_atom_site_aniso_U_22
_atom_site_aniso_U_33
_atom_site_aniso_U_12
_atom_site_aniso_U_13
_atom_site_aniso_U_23
P1 P5+ 0.00814(15) 0.00773(15) 0.00949(16) 0. 0.00078(10) 0.
O1 O2- 0.0161(4) 0.0114(4) 0.0093(4) 0. 0.0007(3) 0.
O2 O2- 0.0084(4) 0.0125(4) 0.0248(5) 0. 0.0044(4) 0.
O3 O2- 0.0121(3) 0.0108(3) 0.0139(3) -0.0027(2) -0.0003(2) 0.0028(2)
Li1 Li1+ 0.0271(3) 0.0120(2) 0.0234(3) 0. 0.0092(2) 0.
Cu1 Cu1+ 0.0271(3) 0.0120(2) 0.0234(3) 0. 0.0092(2) 0.
Li2 Li1+ 0.0140(7) 0.0182(8) 0.0187(7) -0.0004(4) 0.0003(4) -0.0054(5)
Cu2 Cu1+ 0.0140(7) 0.0182(8) 0.0187(7) -0.0004(4) 0.0003(4) -0.0054(5)
#End of TTdata_426050-ICSD
#
