(C) 2022 by FIZ Karlsruhe - Leibniz Institute for Information Infrastructure.  All rights reserved.
data_191544-ICSD
_database_code_ICSD 191544
_audit_creation_date 2014-08-01
_chemical_name_common 'Dilithium manganese silicate'
_chemical_formula_structural 'Li2 Mn (Si O4)'
_chemical_formula_sum 'Li2 Mn1 O4 Si1'
_chemical_name_structure_type Li3PO4
_exptl_crystal_density_diffrn 3.15
_diffrn_ambient_temperature 293.
_citation_title

;
Li2 Mn Si O4 cathodes modified by phosphorous substitution and the structural
consequences
;
loop_
_citation_id
_citation_journal_full
_citation_year
_citation_journal_volume
_citation_page_first
_citation_page_last
_citation_journal_id_ASTM
primary 'Solid State Ionics' 2014 259 29 39 SSIOD3
loop_
_citation_author_citation_id
_citation_author_name
primary 'Gummow, Rosalind J.'
primary 'Han, Guihong'
primary 'Sharma, Neeraj'
primary 'He, Yinghe'
_cell_length_a 6.3098(3)
_cell_length_b 10.7675(6)
_cell_length_c 4.9994(3)
_cell_angle_alpha 90.
_cell_angle_beta 90.
_cell_angle_gamma 90.
_cell_volume 339.66
_cell_formula_units_Z 4
_space_group_name_H-M_alt 'P m n b'
_space_group_IT_number 62
loop_
_space_group_symop_id
_space_group_symop_operation_xyz
1 'x, y+1/2, -z+1/2'
2 '-x+1/2, y, z'
3 'x+1/2, -y+1/2, z+1/2'
4 '-x, -y, -z'
5 '-x, -y+1/2, z+1/2'
6 'x+1/2, -y, -z'
7 '-x+1/2, y+1/2, -z+1/2'
8 'x, y, z'
loop_
_atom_type_symbol
_atom_type_oxidation_number
Li1+ 1
Mn2+ 2
Si4+ 4
O2- -2
loop_
_atom_site_label
_atom_site_type_symbol
_atom_site_symmetry_multiplicity
_atom_site_Wyckoff_symbol
_atom_site_fract_x
_atom_site_fract_y
_atom_site_fract_z
_atom_site_U_iso_or_equiv
_atom_site_occupancy
Li1 Li1+ 8 d 0.508 0.913 0.313 0.029(1) 1.
Mn1 Mn2+ 4 c 0.25 0.168 0.19 0.021(1) 1.
Si1 Si4+ 4 c 0.25 0.339 0.679 0.023(1) 1.
O1 O2- 4 c 0.25 0.343 0.342 0.026(1) 1.
O2 O2- 8 d -0.037 0.091 0.285 0.017(1) 1.
O3 O2- 4 c 0.25 0.193 0.757 0.001(1) 1.
#End of TTdata_191544-ICSD
#
