(C) 2022 by FIZ Karlsruhe - Leibniz Institute for Information Infrastructure.  All rights reserved.
data_183833-ICSD
_database_code_ICSD 183833
_audit_creation_date 2012-08-01
_chemical_name_common
'Lithium iron manganese tetraoxosilicate (2/0.58/0.56/1) - gamma II'
_chemical_formula_structural 'Li1.86 Fe0.58 Mn0.56 (Si O4)'
_chemical_formula_sum 'Fe0.58 Li1.86 Mn0.56 O4 Si1'
_chemical_name_structure_type Li3PO4
_exptl_crystal_density_diffrn 3.27
_diffrn_ambient_temperature 298.
_citation_title
'Polymorphism in Li2 (Fe, Mn) Si O4 : a combined diffraction and NMR study'
loop_
_citation_id
_citation_journal_full
_citation_year
_citation_journal_volume
_citation_page_first
_citation_page_last
_citation_journal_id_ASTM
primary 'Journal of Materials Chemistry' 2011 21 17823 17831 JMACEP
loop_
_citation_author_citation_id
_citation_author_name
primary 'Sirisopanaporn, C.'
primary 'Dominko, R.'
primary 'Masquelier, C.'
primary 'Armstrong, A.R.'
primary 'Mali, G.'
primary 'Bruce, P.G.'
_cell_length_a 6.29309(11)
_cell_length_b 10.7698(3)
_cell_length_c 5.03976(11)
_cell_angle_alpha 90.
_cell_angle_beta 90.
_cell_angle_gamma 90.
_cell_volume 341.57
_cell_formula_units_Z 4
_space_group_name_H-M_alt 'P m n b'
_space_group_IT_number 62
loop_
_space_group_symop_id
_space_group_symop_operation_xyz
1 'x, y+1/2, -z+1/2'
2 '-x+1/2, y, z'
3 'x+1/2, -y+1/2, z+1/2'
4 '-x, -y, -z'
5 '-x, -y+1/2, z+1/2'
6 'x+1/2, -y, -z'
7 '-x+1/2, y+1/2, -z+1/2'
8 'x, y, z'
loop_
_atom_type_symbol
_atom_type_oxidation_number
Li1+ 1
Fe2+ 2
Mn2+ 2
Si4+ 4
O2- -2
loop_
_atom_site_label
_atom_site_type_symbol
_atom_site_symmetry_multiplicity
_atom_site_Wyckoff_symbol
_atom_site_fract_x
_atom_site_fract_y
_atom_site_fract_z
_atom_site_B_iso_or_equiv
_atom_site_occupancy
Li1 Li1+ 8 d 0.0081(9) 0.3326(7) 0.2149(13) 1.00(14) 0.931(7)
Fe1 Fe2+ 8 d 0.0081(9) 0.3326(7) 0.2149(13) 1.00(14) 0.069(7)
Fe2 Fe2+ 4 c 0.25 0.5818(4) 0.2001(10) 0.74(8) 0.444(3)
Mn1 Mn2+ 4 c 0.25 0.5818(4) 0.2001(10) 0.74(8) 0.556(3)
Si1 Si4+ 4 c 0.25 0.4124(2) 0.6919(4) 0.20(2) 1.
O1 O2- 4 c 0.25 0.4088(2) 0.3674(3) 0.62(2) 1.
O2 O2- 4 c 0.25 0.5572(2) 0.7851(4) 0.75(2) 1.
O3 O2- 8 d 0.0385(2) 0.3420(10) 0.7991(2) 0.557(13) 1.
#End of TTdata_183833-ICSD
#
