(C) 2022 by FIZ Karlsruhe - Leibniz Institute for Information Infrastructure.  All rights reserved.
data_79427-ICSD
_database_code_ICSD 79427
_audit_creation_date 1996-10-14
_audit_update_record 2006-04-01
_chemical_name_common 'Trilithium phosphate(V) - gamma'
_chemical_formula_structural 'Li3 (P O4)'
_chemical_formula_sum 'Li3 O4 P1'
_chemical_name_structure_type Li3PO4
_chemical_name_mineral Lithiophosphate
_exptl_crystal_density_diffrn 2.44
_citation_title

;
Synthesis, crystal structure, and ionic conductivity of a polycrystalline
lithium phosphorus oxynitride with the gamma-Li3 P O4 structure
;
loop_
_citation_id
_citation_journal_full
_citation_year
_citation_journal_volume
_citation_page_first
_citation_page_last
_citation_journal_id_ASTM
primary 'Journal of Solid State Chemistry' 1995 115 313 323 JSSCBI
loop_
_citation_author_citation_id
_citation_author_name
primary 'Wang, B.'
primary 'Chakoumakos, B.C.'
primary 'Sales, B.C.'
primary 'Kwak, B.S.'
primary 'Bates, J.B.'
_cell_length_a 6.1113(1)
_cell_length_b 10.4612(2)
_cell_length_c 4.9208(1)
_cell_angle_alpha 90.
_cell_angle_beta 90.
_cell_angle_gamma 90.
_cell_volume 314.59
_cell_formula_units_Z 4
_space_group_name_H-M_alt 'P m n b'
_space_group_IT_number 62
loop_
_space_group_symop_id
_space_group_symop_operation_xyz
1 'x, y+1/2, -z+1/2'
2 '-x+1/2, y, z'
3 'x+1/2, -y+1/2, z+1/2'
4 '-x, -y, -z'
5 '-x, -y+1/2, z+1/2'
6 'x+1/2, -y, -z'
7 '-x+1/2, y+1/2, -z+1/2'
8 'x, y, z'
loop_
_atom_type_symbol
_atom_type_oxidation_number
Li1+ 1
P5+ 5
O2- -2
loop_
_atom_site_label
_atom_site_type_symbol
_atom_site_symmetry_multiplicity
_atom_site_Wyckoff_symbol
_atom_site_fract_x
_atom_site_fract_y
_atom_site_fract_z
_atom_site_U_iso_or_equiv
_atom_site_occupancy
Li1 Li1+ 8 d 0.5016(5) 0.1627(3) 0.3008(7) 0.0109(6) 1.
Li2 Li1+ 4 c 0.75 0.4246(4) 0.2045(9) 0.0110(8) 1.
P1 P5+ 4 c 0.25 0.4115(1) 0.3079(4) 0.0039(3) 1.
O1 O2- 8 d 0.0441(1) 0.3418(1) 0.2054(2) 0.0060(3) 1.
O2 O2- 4 c 0.25 0.0503(1) 0.2928(3) 0.0068(3) 1.
O3 O2- 4 c 0.75 0.0896(1) 0.1223(2) 0.0056(3) 1.
#End of TTdata_79427-ICSD
#
