(C) 2022 by FIZ Karlsruhe - Leibniz Institute for Information Infrastructure.  All rights reserved.
data_238603-ICSD
_database_code_ICSD 238603
_audit_creation_date 2016-02-01
_chemical_name_common 'Tetralithium orthosilicate'
_chemical_formula_structural 'Li4 Si O4'
_chemical_formula_sum 'Li4 O4 Si1'
_exptl_crystal_density_diffrn 2.39
_diffrn_ambient_temperature 293.
_citation_title

;
Structural and mechanistic insights into fast lithium-ion conduction in Li4 Si
O4 - Li3 P O4 solid electrolytes
;
loop_
_citation_id
_citation_journal_full
_citation_year
_citation_journal_volume
_citation_page_first
_citation_page_last
_citation_journal_id_ASTM
primary 'Journal of the American Chemical Society' 2015 137 9136 9145 JACSAT
loop_
_citation_author_citation_id
_citation_author_name
primary 'Deng, Yue'
primary 'Eames, Christopher'
primary 'Chotard, Jean-Noel'
primary 'Lalere, Fabien'
primary 'Seznec, Vincent'
primary 'Emge, Steffen'
primary 'Pecher, Oliver'
primary 'Grey, Clare P.'
primary 'Masquelier, Christian'
primary 'Islam, M. Saiful'
_cell_length_a 11.5556(4)
_cell_length_b 6.0986(2)
_cell_length_c 16.7300(5)
_cell_angle_alpha 90.
_cell_angle_beta 99.0580(10)
_cell_angle_gamma 90.
_cell_volume 1164.31
_cell_formula_units_Z 14
_space_group_name_H-M_alt 'P 1 21/m 1'
_space_group_IT_number 11
loop_
_space_group_symop_id
_space_group_symop_operation_xyz
1 'x, -y+1/2, z'
2 '-x, -y, -z'
3 '-x, y+1/2, -z'
4 'x, y, z'
loop_
_atom_type_symbol
_atom_type_oxidation_number
Li1+ 1
Si4+ 4
O2- -2
Si4+ 4
O2- -2
Si4+ 4
O2- -2
Si4+ 4
O2- -2
Si4+ 4
O2- -2
Si4+ 4
O2- -2
Si4+ 4
O2- -2
loop_
_atom_site_label
_atom_site_type_symbol
_atom_site_symmetry_multiplicity
_atom_site_Wyckoff_symbol
_atom_site_fract_x
_atom_site_fract_y
_atom_site_fract_z
_atom_site_U_iso_or_equiv
_atom_site_occupancy
Li1 Li1+ 4 f 0.07168(19) 0.5029(4) 0.36143(15) 0.0822(13) 1
Li2 Li1+ 4 f 0.47613(12) 0.4947(2) 0.38281(8) 0.0111(2) 1
Li3 Li1+ 2 e 0.72872(16) 0.75 0.19638(11) 0.0131(3) 1
Li4 Li1+ 4 f 0.33403(11) 0.4647(2) 0.23295(8) 0.0126(2) 1
Li5 Li1+ 4 f 0.61647(11) 0.4973(2) 0.09223(8) 0.0114(2) 1
Li6 Li1+ 2 e 0.72847(18) 0.25 0.63967(12) 0.0173(4) 1
Li7 Li1+ 4 f -0.05060(12) 0.5306(2) 0.20603(8) 0.0150(2) 1
Li8 Li1+ 2 e 0.41018(16) 0.25 0.51674(11) 0.0120(3) 1
Li9 Li1+ 4 f 0.80825(12) -0.0318(2) 0.48644(8) 0.0150(2) 1
Li10 Li1+ 4 f 0.66257(11) 0.9924(2) 0.32708(8) 0.0112(2) 1
Li11 Li1+ 2 e 0.54666(16) 0.25 0.22295(11) 0.0128(3) 1
Li12 Li1+ 2 e 0.86609(19) 0.25 0.35630(12) 0.0177(4) 1
Li13 Li1+ 2 e 0.1437(2) 0.75 0.23239(13) 0.0249(4) 1
Li14 Li1+ 4 f 0.23859(12) 0.5393(2) 0.09751(8) 0.0172(3) 1
Li15 Li1+ 2 e -0.02853(19) 0.75 -0.07061(11) 0.0173(4) 1
Li16 Li1+ 4 f 0.81198(12) -0.0031(2) 0.04586(8) 0.0119(2) 1
Li17 Li1+ 2 e 0.41767(19) 0.75 0.04749(14) 0.0225(4) 1
Li18 Li1+ 2 e -0.0059(2) 0.25 0.48902(15) 0.0331(6) 1
Li19 Li1+ 2 e 1.1283(3) 0.25 0.20945(16) 0.0406(7) 1
Si1 Si4+ 2 e 0.38486(2) 0.25 0.070857(14) 0.00533(4) 1
O1 O2- 2 e 0.52376(5) 0.25 0.10435(4) 0.00944(10) 1
O2 O2- 4 f 0.34592(4) 0.47087(7) 0.01827(3) 0.00766(7) 1
O3 O2- 2 e 0.30522(6) 0.25 0.14650(4) 0.00822(9) 1
Si2 Si4+ 2 e 0.47666(2) 0.75 0.213744(14) 0.00540(4) 1
O4 O2- 2 e 0.55497(6) 0.75 0.14117(4) 0.00819(9) 1
O5 O2- 2 e 0.33348(5) 0.75 0.17624(4) 0.00849(10) 1
O6 O2- 4 f 0.49777(4) 0.52937(7) 0.26948(3) 0.00752(7) 1
Si3 Si4+ 2 e 0.24637(2) 0.25 0.361532(15) 0.00585(4) 1
O7 O2- 2 e 0.38174(5) 0.25 0.40108(4) 0.00835(10) 1
O8 O2- 4 f 0.21388(4) 0.46726(8) 0.30319(3) 0.00941(7) 1
O9 O2- 2 e 0.15437(6) 0.25 0.42762(4) 0.00841(10) 1
Si4 Si4+ 2 e 0.65890(2) 0.25 0.493309(14) 0.00562(4) 1
O10 O2- 2 e 0.58026(6) 0.25 0.56588(4) 0.00778(9) 1
O11 O2- 4 f 0.64167(4) 0.47293(7) 0.43938(3) 0.00790(7) 1
O12 O2- 2 e 0.79926(5) 0.25 0.53783(4) 0.00935(10) 1
Si5 Si4+ 2 e 0.79943(2) 0.25 0.208656(14) 0.00572(4) 1
O13 O2- 2 e 0.71768(6) 0.25 0.27912(4) 0.00806(9) 1
O14 O2- 4 f 0.78392(4) 0.47297(7) 0.15469(3) 0.00811(7) 1
O15 O2- 2 e 0.93847(6) 0.25 0.25579(4) 0.00947(10) 1
Si6 Si4+ 2 e 0.89450(2) 0.75 0.356180(14) 0.00578(4) 1
O16 O2- 2 e 0.76111(5) 0.75 0.31253(4) 0.00817(9) 1
O17 O2- 4 f 0.92578(4) 0.53309(8) 0.41527(3) 0.00931(7) 1
O18 O2- 2 e 0.98949(6) 0.75 0.29217(4) 0.00824(9) 1
Si7 Si4+ 2 e 0.04027(2) 0.75 0.078058(14) 0.00591(4) 1
O19 O2- 4 f 0.06901(4) 0.53259(7) 0.13704(3) 0.00885(7) 1
O20 O2- 2 e 0.13293(6) 0.75 0.01421(4) 0.00855(10) 1
O21 O2- 2 e -0.09131(5) 0.75 0.02952(4) 0.00907(10) 1
loop_
_atom_site_aniso_label
_atom_site_aniso_type_symbol
_atom_site_aniso_U_11
_atom_site_aniso_U_22
_atom_site_aniso_U_33
_atom_site_aniso_U_12
_atom_site_aniso_U_13
_atom_site_aniso_U_23
Li1 Li1+ 0.0697(18) 0.098(2) 0.098(2) 0.0735(16) 0.0729(17) 0.0855(18)
Li2 Li1+ 0.0109(5) 0.0109(5) 0.0114(5) -0.0007(4) 0.0014(4) -0.0005(4)
Li3 Li1+ 0.0144(8) 0.0134(8) 0.0113(7) 0. 0.0017(6) 0.
Li4 Li1+ 0.0123(5) 0.0132(5) 0.0128(5) -0.0024(4) 0.0031(4) -0.0004(4)
Li5 Li1+ 0.0111(5) 0.0114(5) 0.0119(5) -0.0001(4) 0.0025(4) -0.0004(4)
Li6 Li1+ 0.0184(9) 0.0187(9) 0.0129(8) 0. -0.0036(7) 0.
Li7 Li1+ 0.0156(6) 0.0137(6) 0.0166(6) -0.0048(4) 0.0058(5) -0.0031(4)
Li8 Li1+ 0.0126(7) 0.0115(7) 0.0115(7) 0. 0.0004(6) 0.
Li9 Li1+ 0.0147(6) 0.0138(6) 0.0178(6) 0.0043(4) 0.0072(5) 0.0037(5)
Li10 Li1+ 0.0108(5) 0.0129(5) 0.0100(5) 0.0005(4) 0.0015(4) 0.0003(4)
Li11 Li1+ 0.0143(8) 0.0122(7) 0.0118(7) 0. 0.0014(6) 0.
Li12 Li1+ 0.0215(10) 0.0178(9) 0.0119(8) 0. -0.0031(7) 0.
Li13 Li1+ 0.0251(11) 0.0294(11) 0.0172(9) 0. -0.0060(8) 0.
Li14 Li1+ 0.0163(6) 0.0206(6) 0.0153(6) 0.0070(5) 0.0041(5) 0.0023(5)
Li15 Li1+ 0.0228(9) 0.0170(9) 0.0118(8) 0. 0.0015(7) 0.
Li16 Li1+ 0.0110(5) 0.0152(5) 0.0094(5) 0.0005(4) 0.0011(4) 0.0002(4)
Li17 Li1+ 0.0210(10) 0.0098(8) 0.0323(11) 0. -0.0096(8) 0.
Li18 Li1+ 0.0364(14) 0.0324(13) 0.0244(11) 0. -0.0143(10) 0.
Li19 Li1+ 0.0510(18) 0.0303(13) 0.0310(13) 0. -0.0233(12) 0.
Si1 Si4+ 0.00521(8) 0.00515(9) 0.00555(9) 0. 0.00060(6) 0.
O1 O2- 0.0062(2) 0.0080(2) 0.0133(3) 0. -0.00100(18) 0.
O2 O2- 0.00864(15) 0.00689(16) 0.00723(15) 0.00083(12) 0.00056(11) 0.00136(12)
O3 O2- 0.0104(2) 0.0078(2) 0.0069(2) 0. 0.00285(17) 0.
Si2 Si4+ 0.00541(8) 0.00567(10) 0.00508(8) 0. 0.00072(6) 0.
O4 O2- 0.0092(2) 0.0083(2) 0.0077(2) 0. 0.00331(17) 0.
O5 O2- 0.0070(2) 0.0074(2) 0.0100(2) 0. -0.00198(17) 0.
O6 O2- 0.00806(15) 0.00722(17) 0.00700(15) 0.00077(12) 0.00033(11) 0.00169(12)
Si3 Si4+ 0.00507(8) 0.00707(10) 0.00542(9) 0. 0.00087(6) 0.
O7 O2- 0.0058(2) 0.0092(2) 0.0096(2) 0. -0.00020(16) 0.
O8 O2- 0.00927(16) 0.01041(18) 0.00859(16) 0.00213(13) 0.00153(12) 0.00295(13)
O9 O2- 0.0085(2) 0.0091(2) 0.0083(2) 0. 0.00341(17) 0.
Si4 Si4+ 0.00570(8) 0.00581(10) 0.00536(9) 0. 0.00085(6) 0.
O10 O2- 0.0082(2) 0.0085(2) 0.0071(2) 0. 0.00265(16) 0.
O11 O2- 0.00905(15) 0.00744(17) 0.00713(15) 0.00048(12) 0.00108(12) 0.00126(12)
O12 O2- 0.0065(2) 0.0105(3) 0.0102(2) 0. -0.00112(17) 0.
Si5 Si4+ 0.00590(8) 0.00596(9) 0.00529(8) 0. 0.00082(6) 0.
O13 O2- 0.0088(2) 0.0087(2) 0.0072(2) 0. 0.00270(17) 0.
O14 O2- 0.00929(16) 0.00778(17) 0.00731(15) 0.00064(13) 0.00150(12) 0.00134(12)
O15 O2- 0.0069(2) 0.0103(3) 0.0104(2) 0. -0.00100(17) 0.
Si6 Si4+ 0.00501(8) 0.00699(10) 0.00538(8) 0. 0.00100(6) 0.
O16 O2- 0.0061(2) 0.0088(2) 0.0092(2) 0. -0.00036(16) 0.
O17 O2- 0.00911(16) 0.01064(18) 0.00823(16) 0.00191(13) 0.00156(12) 0.00256(13)
O18 O2- 0.0081(2) 0.0091(2) 0.0083(2) 0. 0.00374(17) 0.
Si7 Si4+ 0.00556(8) 0.00674(10) 0.00548(9) 0. 0.00099(6) 0.
O19 O2- 0.00950(16) 0.00890(17) 0.00818(16) 0.00106(13) 0.00150(12) 0.00195(13)
O20 O2- 0.0086(2) 0.0093(2) 0.0086(2) 0. 0.00403(17) 0.
O21 O2- 0.0061(2) 0.0104(3) 0.0104(2) 0. 0.00006(17) 0.
#End of TTdata_238603-ICSD
#
