(C) 2022 by FIZ Karlsruhe - Leibniz Institute for Information Infrastructure.  All rights reserved.
data_1113-ICSD
_database_code_ICSD 1113
_audit_creation_date 1980-01-01
_audit_update_record 2010-02-01
_chemical_name_common 'Cadmium dilithium silicate'
_chemical_formula_structural 'Cd Li2 (Si O4)'
_chemical_formula_sum 'Cd1 Li2 O4 Si1'
_chemical_name_structure_type Li3PO4
_exptl_crystal_density_diffrn 4.08
_citation_title 'Dilithium cadmium orthosilicate'
loop_
_citation_id
_citation_journal_full
_citation_year
_citation_journal_volume
_citation_page_first
_citation_page_last
_citation_journal_id_ASTM
primary

;
Acta Crystallographica, Section B: Structural Crystallography and Crystal
Chemistry
; 1977 33 2656 2657 ACBCAR
loop_
_citation_author_citation_id
_citation_author_name
primary 'Riekel, C.'
_cell_length_a 6.479(1)
_cell_length_b 10.715(2)
_cell_length_c 5.119(1)
_cell_angle_alpha 90.
_cell_angle_beta 90.
_cell_angle_gamma 90.
_cell_volume 355.37
_cell_formula_units_Z 4
_space_group_name_H-M_alt 'P m n b'
_space_group_IT_number 62
loop_
_space_group_symop_id
_space_group_symop_operation_xyz
1 'x, y+1/2, -z+1/2'
2 '-x+1/2, y, z'
3 'x+1/2, -y+1/2, z+1/2'
4 '-x, -y, -z'
5 '-x, -y+1/2, z+1/2'
6 'x+1/2, -y, -z'
7 '-x+1/2, y+1/2, -z+1/2'
8 'x, y, z'
loop_
_atom_type_symbol
_atom_type_oxidation_number
Cd2+ 2
Si4+ 4
O2- -2
Li1+ 1
loop_
_atom_site_label
_atom_site_type_symbol
_atom_site_symmetry_multiplicity
_atom_site_Wyckoff_symbol
_atom_site_fract_x
_atom_site_fract_y
_atom_site_fract_z
_atom_site_B_iso_or_equiv
_atom_site_occupancy
Cd1 Cd2+ 4 c 0.25 0.16269(4) 0.1745(1) . 1.
Si1 Si4+ 4 c 0.25 0.3727(2) 0.6676(4) . 1.
O1 O2- 4 c 0.25 0.3535(5) 0.3505(1) . 1.
O2 O2- 8 d -.0466(4) 0.0896(3) 0.2890(7) . 1.
O3 O2- 4 c 0.25 0.1929(4) 0.7451(8) . 1.
Li1 Li1+ 8 d 0.499(1) 0.910(1) 0.327(3) . 1.
#End of TTdata_1113-ICSD
#
