(C) 2022 by FIZ Karlsruhe - Leibniz Institute for Information Infrastructure.  All rights reserved.
data_59708-ICSD
_database_code_ICSD 59708
_audit_creation_date 2005-04-01
_chemical_name_common 'Tetralithium tetrathiosilicate'
_chemical_formula_structural 'Li4 (Si S4)'
_chemical_formula_sum 'Li4 S4 Si1'
_chemical_name_structure_type Li4CoO4
_exptl_crystal_density_diffrn 1.86
_citation_title

;
Synthesis of new lithium ionic conductor thio-LISICON-lithium silicon sulfides
system
;
loop_
_citation_id
_citation_journal_full
_citation_year
_citation_journal_volume
_citation_page_first
_citation_page_last
_citation_journal_id_ASTM
primary 'Journal of Solid State Chemistry' 2002 168 140 148 JSSCBI
loop_
_citation_author_citation_id
_citation_author_name
primary 'Murayama, M.'
primary 'Kanno, R.'
primary 'Irie, M.'
primary 'Ito, S.'
primary 'Hata, T.'
primary 'Sonoyama, N.'
primary 'Kawamoto, Y.'
_cell_length_a 6.8934(3)
_cell_length_b 7.7675(3)
_cell_length_c 6.1241(2)
_cell_angle_alpha 90
_cell_angle_beta 91.225(5)
_cell_angle_gamma 90
_cell_volume 327.84
_cell_formula_units_Z 2
_space_group_name_H-M_alt 'P 1 21/m 1'
_space_group_IT_number 11
loop_
_space_group_symop_id
_space_group_symop_operation_xyz
1 'x, -y+1/2, z'
2 '-x, -y, -z'
3 '-x, y+1/2, -z'
4 'x, y, z'
loop_
_atom_type_symbol
_atom_type_oxidation_number
Si4+ 4
S2- -2
Li1+ 1
loop_
_atom_site_label
_atom_site_type_symbol
_atom_site_symmetry_multiplicity
_atom_site_Wyckoff_symbol
_atom_site_fract_x
_atom_site_fract_y
_atom_site_fract_z
_atom_site_B_iso_or_equiv
_atom_site_occupancy
Si1 Si4+ 2 e .6737(11) .25 .3612(12) .22(19) 1.
S1 S2- 4 f .8121(6) .0200(6) .2381(8) .63(15) 1.
S2 S2- 2 e .3657(9) .25 .2360(13) 1.3(2) 1.
S3 S2- 2 e .6757(10) .25 .7126(12) 1.3(2) 1.
#End of TTdata_59708-ICSD
#
