(C) 2022 by FIZ Karlsruhe - Leibniz Institute for Information Infrastructure.  All rights reserved.
data_261335-ICSD
_database_code_ICSD 261335
_audit_creation_date 2011-08-01
_chemical_name_common 'Dilithium iron silicate'
_chemical_formula_structural 'Li2 Fe Si O4'
_chemical_formula_sum 'Fe1 Li2 O4 Si1'
_chemical_name_structure_type Li3PO4
_exptl_crystal_density_diffrn 3.18
_diffrn_ambient_temperature 298.
_citation_title 'Dependence of Li2 Fe Si O4 electrochemistry on structure'
loop_
_citation_id
_citation_journal_full
_citation_year
_citation_journal_volume
_citation_page_first
_citation_page_last
_citation_journal_id_ASTM
primary 'Journal of the American Chemical Society' 2011 133 1263 1265 JACSAT
loop_
_citation_author_citation_id
_citation_author_name
primary 'Sirisopanaporn, C.'
primary 'Masquelier, C.'
primary 'Bruce, P.G.'
primary 'Armstrong, A.R.'
primary 'Dominko, R.'
_cell_length_a 6.2855(4)
_cell_length_b 10.6594(6)
_cell_length_c 5.0368(3)
_cell_angle_alpha 90.
_cell_angle_beta 90.
_cell_angle_gamma 90.
_cell_volume 337.46
_cell_formula_units_Z 4
_space_group_name_H-M_alt 'P m n b'
_space_group_IT_number 62
loop_
_space_group_symop_id
_space_group_symop_operation_xyz
1 'x, y+1/2, -z+1/2'
2 '-x+1/2, y, z'
3 'x+1/2, -y+1/2, z+1/2'
4 '-x, -y, -z'
5 '-x, -y+1/2, z+1/2'
6 'x+1/2, -y, -z'
7 '-x+1/2, y+1/2, -z+1/2'
8 'x, y, z'
loop_
_atom_type_symbol
_atom_type_oxidation_number
Li1+ 1
Fe2+ 2
Si4+ 4
O2- -2
loop_
_atom_site_label
_atom_site_type_symbol
_atom_site_symmetry_multiplicity
_atom_site_Wyckoff_symbol
_atom_site_fract_x
_atom_site_fract_y
_atom_site_fract_z
_atom_site_B_iso_or_equiv
_atom_site_occupancy
Li1 Li1+ 8 d 0.002(2) 0.3322(8) 0.223(4) . 1.
Fe1 Fe2+ 4 c 0.25 0.5805(2) 0.2036(3) . 1.
Si1 Si4+ 4 c 0.25 0.4161(3) 0.6990(7) . 1.
O1 O2- 4 c 0.25 0.4073(5) 0.3636(9) . 1.
O2 O2- 4 c 0.25 0.5648(5) 0.778(1) . 1.
O3 O2- 8 d 0.0352(5) 0.3428(3) 0.8064(8) . 1.
#End of TTdata_261335-ICSD
#
