(C) 2022 by FIZ Karlsruhe - Leibniz Institute for Information Infrastructure.  All rights reserved.
data_53685-ICSD
_database_code_ICSD 53685
_audit_creation_date 2023-02-01
_chemical_name_common 'Lithium iron phosphate'
_chemical_formula_structural 'Li0.831 Fe1.042 (P O4)'
_chemical_formula_sum 'Fe1.042 Li0.831 O4 P1'
_chemical_name_structure_type Olivine#Mg2SiO4
_exptl_crystal_density_diffrn 3.63
_citation_title

;
The influence of the Li$^+$ addition rate during the hydrothermal synthesis of
LiFePO$_4$ on the average and local structure
;
loop_
_citation_id
_citation_journal_full
_citation_year
_citation_journal_volume
_citation_page_first
_citation_page_last
_citation_journal_id_ASTM
primary 'Dalton Transactions' 2022 51 18176 18186 DTARAF
loop_
_citation_author_citation_id
_citation_author_name
primary 'Thiebaut, Michelle'
primary 'Billing, Caren'
primary 'Naidoo, Deena'
primary 'Billing, David G.'
_cell_length_a 10.34(2)
_cell_length_b 5.989(1)
_cell_length_c 4.6995(9)
_cell_angle_alpha 90
_cell_angle_beta 90
_cell_angle_gamma 90
_cell_volume 291.02
_cell_formula_units_Z 4
_space_group_name_H-M_alt 'P n m a'
_space_group_IT_number 62
loop_
_space_group_symop_id
_space_group_symop_operation_xyz
1 'x+1/2, y, -z+1/2'
2 'x, -y+1/2, z'
3 '-x+1/2, y+1/2, z+1/2'
4 '-x, -y, -z'
5 '-x+1/2, -y, z+1/2'
6 '-x, y+1/2, -z'
7 'x+1/2, -y+1/2, -z+1/2'
8 'x, y, z'
loop_
_atom_type_symbol
_atom_type_oxidation_number
Fe2+ 2
P5+ 5
O2- -2
Li1+ 1
Fe2+ 2
loop_
_atom_site_label
_atom_site_type_symbol
_atom_site_symmetry_multiplicity
_atom_site_Wyckoff_symbol
_atom_site_fract_x
_atom_site_fract_y
_atom_site_fract_z
_atom_site_B_iso_or_equiv
_atom_site_occupancy
Fe1 Fe2+ 4 c 0.27791 0.25 0.9681 0.71598 0.9534
P1 P5+ 4 c 0.08906 0.25 0.41294 1.5 1
O1 O2- 4 c 0.10384 0.25 0.75173 1.4375 1
O2 O2- 4 c 0.43413 0.25 0.21655 0.50073 1
O3 O2- 8 d 0.16792 0.02747 0.27849 0.50122 1
Li1 Li1+ 4 a 0 0 0 0.61203 0.83122
Fe2 Fe2+ 4 a 0 0 0 0.5625 0.08817
#End of TTdata_53685-ICSD
#
