(C) 2022 by FIZ Karlsruhe - Leibniz Institute for Information Infrastructure.  All rights reserved.
data_69967-ICSD
_database_code_ICSD 69967
_audit_creation_date 1993-01-06
_audit_update_record 1998-06-29
_chemical_name_common 'Sodium dilithium phosphate'
_chemical_formula_structural 'Na Li2 (P O4)'
_chemical_formula_sum 'Li2 Na1 O4 P1'
_chemical_name_structure_type Li3PO4
_chemical_name_mineral Nalipoite
_exptl_crystal_density_diffrn 2.59
_citation_title 'The crystal structure of nalipoite'
loop_
_citation_id
_citation_journal_full
_citation_year
_citation_journal_volume
_citation_page_first
_citation_page_last
_citation_journal_id_ASTM
primary 'Canadian Mineralogist' 1991 29 569 573 CAMIA6
loop_
_citation_author_citation_id
_citation_author_name
primary 'Scott Ercit, T.'
_cell_length_a 6.884(2)
_cell_length_b 9.976(4)
_cell_length_c 4.927(2)
_cell_angle_alpha 90.
_cell_angle_beta 90.
_cell_angle_gamma 90.
_cell_volume 338.36
_cell_formula_units_Z 4
_space_group_name_H-M_alt 'P m n b'
_space_group_IT_number 62
loop_
_space_group_symop_id
_space_group_symop_operation_xyz
1 'x, y+1/2, -z+1/2'
2 '-x+1/2, y, z'
3 'x+1/2, -y+1/2, z+1/2'
4 '-x, -y, -z'
5 '-x, -y+1/2, z+1/2'
6 'x+1/2, -y, -z'
7 '-x+1/2, y+1/2, -z+1/2'
8 'x, y, z'
loop_
_atom_type_symbol
_atom_type_oxidation_number
Na1+ 1
Li1+ 1
P5+ 5
O2- -2
loop_
_atom_site_label
_atom_site_type_symbol
_atom_site_symmetry_multiplicity
_atom_site_Wyckoff_symbol
_atom_site_fract_x
_atom_site_fract_y
_atom_site_fract_z
_atom_site_B_iso_or_equiv
_atom_site_occupancy
Na1 Na1+ 4 c 0.25 0.8857(1) 0.7636(2) . 1.
Li1 Li1+ 8 d 0.5002(5) 0.6541(3) 0.7915(7) . 1.
P1 P5+ 4 c 0.25 0.09802(6) 0.20247(1) . 1.
O1 O2- 4 c 0.25 0.1198(2) 0.8911(4) . 1.
O2 O2- 8 d 0.0668(2) 0.1623(1) 0.3243(2) . 1.
O3 O2- 4 c 0.25 0.9454(2) 0.2578(4) . 1.
loop_
_atom_site_aniso_label
_atom_site_aniso_type_symbol
_atom_site_aniso_U_11
_atom_site_aniso_U_22
_atom_site_aniso_U_33
_atom_site_aniso_U_12
_atom_site_aniso_U_13
_atom_site_aniso_U_23
Na1 Na1+ 0.0103(1) 0.0249(7) 0.0223(6) 0 0 -.0079(5)
Li1 Li1+ 0.0121(16) 0.0163(15) 0.0141(15) -.0003(13) -.0011(14) -.0007(13)
P1 P5+ 0.0061(3) 0.0081(3) 0.0072(3) 0 0 0.0005(3)
O1 O2- 0.0107(9) 0.0151(10) 0.0076(8) 0 0 0.0005(7)
O2 O2- 0.0076(6) 0.0114(6) 0.0110(6) 0.0017(5) 0.0012(5) 0.0003(5)
O3 O2- 0.0117(9) 0.0079(8) 0.014(1) 0 0 0.0009(7)
#End of TTdata_69967-ICSD
#
