(C) 2022 by FIZ Karlsruhe - Leibniz Institute for Information Infrastructure.  All rights reserved.
data_426051-ICSD
_database_code_ICSD 426051
_audit_creation_date 2014-08-01
_chemical_name_common 'Lithium copper orthophosphate (2.05/0.95/1)'
_chemical_formula_structural '(Li2.05 Cu0.95) (P O4)'
_chemical_formula_sum 'Cu0.95 Li2.05 O4 P1'
_chemical_name_structure_type Enargite#Cu3AsS4
_exptl_crystal_density_diffrn 3.45
_diffrn_ambient_temperature 293.
_citation_title

;
Lithium Copper(I) orthophosphates Li3-x Cux P O4: Synthesis, crystal
structures, and electrochemical properties
;
loop_
_citation_id
_citation_journal_full
_citation_year
_citation_journal_volume
_citation_page_first
_citation_page_last
_citation_journal_id_ASTM
primary 'Zeitschrift fuer Anorganische und Allgemeine Chemie (1950) (DE)' 2014
640 944 951 ZAACAB
loop_
_citation_author_citation_id
_citation_author_name
primary 'Snyder, Katharina'
primary 'Raguz, Branimir'
primary 'Hoffbauer, Wilfried'
primary 'Glaum, Robert'
primary 'Ehrenberg, Hartmut'
primary 'Herklotz, Markus'
_cell_length_a 6.2113(8)
_cell_length_b 5.2597(7)
_cell_length_c 4.9904(5)
_cell_angle_alpha 90.
_cell_angle_beta 90.
_cell_angle_gamma 90.
_cell_volume 163.03
_cell_formula_units_Z 2
_space_group_name_H-M_alt 'P m n 21'
_space_group_IT_number 31
loop_
_space_group_symop_id
_space_group_symop_operation_xyz
1 'x+1/2, -y, z+1/2'
2 '-x+1/2, -y, z+1/2'
3 '-x, y, z'
4 'x, y, z'
loop_
_atom_type_symbol
_atom_type_oxidation_number
Cu1+ 1
Li1+ 1
Cu1+ 1
P5+ 5
O2- -2
loop_
_atom_site_label
_atom_site_type_symbol
_atom_site_symmetry_multiplicity
_atom_site_Wyckoff_symbol
_atom_site_fract_x
_atom_site_fract_y
_atom_site_fract_z
_atom_site_U_iso_or_equiv
_atom_site_occupancy
Cu1 Cu1+ 2 a 0. 0.81475(14) 0.7617 0.0217(3) 0.76
Li1 Li1+ 2 a 0. 0.81475(14) 0.7617 0.0217(3) 0.24
Li2 Li1+ 4 b -0.2520(4) 1.3272(5) 0.765(3) 0.0204(5) 0.91
Cu2 Cu1+ 4 b -0.2520(4) 1.3272(5) 0.765(3) 0.0204(5) 0.09
P1 P5+ 2 a -0.5 0.82039(18) 0.7663(4) 0.0093(2) 1
O1 O2- 4 b -0.2987(4) 0.6834(4) 0.6590(8) 0.0140(5) 1
O2 O2- 2 a 0. 1.1947(6) 0.5758(9) 0.0133(7) 1
O3 O2- 2 a -0.5 1.1013(6) 0.6788(9) 0.0145(7) 1
loop_
_atom_site_aniso_label
_atom_site_aniso_type_symbol
_atom_site_aniso_U_11
_atom_site_aniso_U_22
_atom_site_aniso_U_33
_atom_site_aniso_U_12
_atom_site_aniso_U_13
_atom_site_aniso_U_23
Cu1 Cu1+ 0.0158(4) 0.0271(5) 0.0222(5) 0. 0. 0.0038(5)
Li1 Li1+ 0.0158(4) 0.0271(5) 0.0222(5) 0. 0. 0.0038(5)
Li2 Li1+ 0.0205(13) 0.0195(11) 0.0213(12) 0.0037(10) 0.0033(11) 0.000(2)
Cu2 Cu1+ 0.0205(13) 0.0195(11) 0.0213(12) 0.0037(10) 0.0033(11) 0.000(2)
P1 P5+ 0.0069(4) 0.0087(4) 0.0124(5) 0. 0. 0.0002(6)
O1 O2- 0.0071(9) 0.0133(10) 0.0218(13) 0.0020(7) 0.0013(11) 0.0001(10)
O2 O2- 0.0166(18) 0.0162(16) 0.0071(16) 0. 0. -0.0024(13)
O3 O2- 0.0116(14) 0.0131(14) 0.0188(16) 0. 0. 0.0010(15)
#End of TTdata_426051-ICSD
#
