(C) 2022 by FIZ Karlsruhe - Leibniz Institute for Information Infrastructure.  All rights reserved.
data_34221-ICSD
_database_code_ICSD 34221
_audit_creation_date 1980-12-31
_audit_update_record 2006-04-01
_chemical_name_common 'Trilithium phosphate(V) - HT'
_chemical_formula_structural 'Li3 (P O4)'
_chemical_formula_sum 'Li3 O4 P1'
_chemical_name_structure_type Li3PO4
_chemical_name_mineral Lithiophosphate
_exptl_crystal_density_diffrn 2.44
_citation_title

;
Solid solutions between octahedral and terahedral olivine types in
Li-Zn-germanates
;
loop_
_citation_id
_citation_journal_full
_citation_year
_citation_journal_volume
_citation_page_first
_citation_page_last
_citation_journal_id_ASTM
primary 'Inorganic and Nuclear Chemistry Letters' 1980 16 525 527 INUCAF
loop_
_citation_author_citation_id
_citation_author_name
primary 'Baur, W.H.'
_cell_length_a 6.1147
_cell_length_b 10.475
_cell_length_c 4.9228
_cell_angle_alpha 90.
_cell_angle_beta 90.
_cell_angle_gamma 90.
_cell_volume 315.31
_cell_formula_units_Z 4
_space_group_name_H-M_alt 'P m n b'
_space_group_IT_number 62
loop_
_space_group_symop_id
_space_group_symop_operation_xyz
1 'x, y+1/2, -z+1/2'
2 '-x+1/2, y, z'
3 'x+1/2, -y+1/2, z+1/2'
4 '-x, -y, -z'
5 '-x, -y+1/2, z+1/2'
6 'x+1/2, -y, -z'
7 '-x+1/2, y+1/2, -z+1/2'
8 'x, y, z'
loop_
_atom_type_symbol
_atom_type_oxidation_number
P5+ 5
Li1+ 1
O2- -2
loop_
_atom_site_label
_atom_site_type_symbol
_atom_site_symmetry_multiplicity
_atom_site_Wyckoff_symbol
_atom_site_fract_x
_atom_site_fract_y
_atom_site_fract_z
_atom_site_B_iso_or_equiv
_atom_site_occupancy
P1 P5+ 4 c 0.25 0.4115(2) 0.3088(6) 0.39 1.
Li1 Li1+ 8 d 0.503(4) 0.163(1) 0.301(3) 1.2 1.
Li2 Li1+ 4 c 0.75 0.423(2) 0.202(6) 1.2 1.
O1 O2- 8 d 0.0422(13) 0.3419(3) 0.2055(9) 0.79 1.
O2 O2- 4 c 0.25 0.0518(6) 0.2936(16) 0.62 1.
O3 O2- 4 c 0.75 0.0900(7) 0.1223(15) 0.54 1.
#End of TTdata_34221-ICSD
#
