(C) 2022 by FIZ Karlsruhe - Leibniz Institute for Information Infrastructure.  All rights reserved.
data_25816-ICSD
_database_code_ICSD 25816
_audit_creation_date 1980-01-01
_audit_update_record 2010-08-01
_chemical_name_common 'Trilithium phosphate(V)'
_chemical_formula_structural 'Li3 (P O4)'
_chemical_formula_sum 'Li3 O4 P1'
_chemical_name_structure_type Li3PO4
_chemical_name_mineral Lithiophosphate
_exptl_crystal_density_diffrn 2.42
_citation_title 'Die Kristallstruktur von Lithiumphosphat, Li3 P O4'
loop_
_citation_id
_citation_journal_full
_citation_year
_citation_journal_volume
_citation_page_first
_citation_page_last
_citation_journal_id_ASTM
primary 'Acta Crystallographica' 1960 13 863 867 ACCRA9
loop_
_citation_author_citation_id
_citation_author_name
primary 'Zemann, J.'
_cell_length_a 6.12
_cell_length_b 10.53
_cell_length_c 4.93
_cell_angle_alpha 90.
_cell_angle_beta 90.
_cell_angle_gamma 90.
_cell_volume 317.71
_cell_formula_units_Z 4
_space_group_name_H-M_alt 'P m n b'
_space_group_IT_number 62
loop_
_space_group_symop_id
_space_group_symop_operation_xyz
1 'x, y+1/2, -z+1/2'
2 '-x+1/2, y, z'
3 'x+1/2, -y+1/2, z+1/2'
4 '-x, -y, -z'
5 '-x, -y+1/2, z+1/2'
6 'x+1/2, -y, -z'
7 '-x+1/2, y+1/2, -z+1/2'
8 'x, y, z'
loop_
_atom_type_symbol
_atom_type_oxidation_number
Li1+ 1
P5+ 5
O2- -2
loop_
_atom_site_label
_atom_site_type_symbol
_atom_site_symmetry_multiplicity
_atom_site_Wyckoff_symbol
_atom_site_fract_x
_atom_site_fract_y
_atom_site_fract_z
_atom_site_B_iso_or_equiv
_atom_site_occupancy
Li1 Li1+ 8 d 0.495(7) 0.162(4) 0.304(8) 1.1 1.
Li2 Li1+ 4 c 0.75 0.422(4) 0.196(8) 1.1 1.
P1 P5+ 4 c 0.25 0.4115(1) 0.308(1) 0.5 1.
O1 O2- 8 d 0.042(2) 0.342(1) 0.205(2) 0.9 1.
O2 O2- 4 c 0.25 0.052(1) 0.295(2) 0.9 1.
O3 O2- 4 c 0.75 0.090(1) 0.125(2) 0.9 1.
#End of TTdata_25816-ICSD
#
