(C) 2022 by FIZ Karlsruhe - Leibniz Institute for Information Infrastructure.  All rights reserved.
data_416887-ICSD
_database_code_ICSD 416887
_audit_creation_date 2008-02-01
_chemical_name_common 'Sodium strontium phosphide'
_chemical_formula_structural 'Na Sr P'
_chemical_formula_sum 'Na1 P1 Sr1'
_chemical_name_structure_type ZrNiAl#Fe2P
_exptl_crystal_density_diffrn 3.13
_diffrn_ambient_temperature 167.
_citation_title

;
Synthesis and single crystal structures of ternary phosphides Li4 Sr P2 and A
Ae P (A = Li, Na; Ae = Sr, Ba)
;
loop_
_citation_id
_citation_journal_full
_citation_year
_citation_journal_volume
_citation_page_first
_citation_page_last
_citation_journal_id_ASTM
primary 'Journal of Solid State Chemistry' 2007 180 432 439 JSSCBI
loop_
_citation_author_citation_id
_citation_author_name
primary 'Dong Yong-Kwan'
primary 'DiSalvo, F.J.'
_cell_length_a 7.6357(3)
_cell_length_b 7.6357(3)
_cell_length_c 4.4698(3)
_cell_angle_alpha 90
_cell_angle_beta 90
_cell_angle_gamma 120
_cell_volume 225.69
_cell_formula_units_Z 3
_space_group_name_H-M_alt 'P -6 2 m'
_space_group_IT_number 189
loop_
_space_group_symop_id
_space_group_symop_operation_xyz
1 '-x, -x+y, -z'
2 'x-y, -y, -z'
3 'y, x, -z'
4 '-x, -x+y, z'
5 'x-y, -y, z'
6 'y, x, z'
7 '-x+y, -x, -z'
8 '-y, x-y, -z'
9 'x, y, -z'
10 '-x+y, -x, z'
11 '-y, x-y, z'
12 'x, y, z'
loop_
_atom_type_symbol
_atom_type_oxidation_number
Na1+ 1
Sr2+ 2
P3- -3
loop_
_atom_site_label
_atom_site_type_symbol
_atom_site_symmetry_multiplicity
_atom_site_Wyckoff_symbol
_atom_site_fract_x
_atom_site_fract_y
_atom_site_fract_z
_atom_site_U_iso_or_equiv
_atom_site_occupancy
Na1 Na1+ 3 f 0.75831(14) 0. 0. 0.0091(2) 1
Sr1 Sr2+ 3 g 0.41599(3) 0. 0.5 0.00677(5) 1
P1 P3- 2 c 0.6667 0.3333 0. 0.00636(16) 1
P2 P3- 1 b 0. 0. 0.5 0.0072(2) 1
loop_
_atom_site_aniso_label
_atom_site_aniso_type_symbol
_atom_site_aniso_U_11
_atom_site_aniso_U_22
_atom_site_aniso_U_33
_atom_site_aniso_U_12
_atom_site_aniso_U_13
_atom_site_aniso_U_23
Na1 Na1+ 0.0091(4) 0.0095(5) 0.0087(6) 0.0047(2) 0. 0.
Sr1 Sr2+ 0.00715(8) 0.00593(11) 0.00683(10) 0.00296(6) 0. 0.
P1 P3- 0.0060(2) 0.0060(2) 0.0071(4) 0.00299(11) 0. 0.
P2 P3- 0.0076(3) 0.0076(3) 0.0064(6) 0.00380(16) 0. 0.
#End of TTdata_416887-ICSD
#
