(C) 2022 by FIZ Karlsruhe - Leibniz Institute for Information Infrastructure.  All rights reserved.
data_166547-ICSD
_database_code_ICSD 166547
_audit_creation_date 2010-08-01
_chemical_name_common 'Dilithium magnesium germanate'
_chemical_formula_structural 'Li2 Mg (Ge O4)'
_chemical_formula_sum 'Ge1 Li2 Mg1 O4'
_chemical_name_structure_type Li3PO4
_exptl_crystal_density_diffrn 3.29
_citation_title

;
Sur une famille d'orthogermanates doubles de lithium Li2 M(II) Ge O4 avec
M(II) = Mg, Ca, Fe, Co, Ni, Zn, Cd. Structure cristalline de Li2 Mg Ge O4
;
loop_
_citation_id
_citation_journal_full
_citation_year
_citation_journal_volume
_citation_page_first
_citation_page_last
_citation_journal_id_ASTM
primary

;
Comptes Rendus des Seances de l'Academie des Sciences, Serie C: Sciences
Chimiques
; 1974 278 251 253 CHDCAQ
loop_
_citation_author_citation_id
_citation_author_name
primary 'Monnaye, B.'
primary 'Garrault, C.'
primary 'Perez, G.'
primary 'Bouaziz, R.'
_cell_length_a 10.88
_cell_length_b 6.28
_cell_length_c 5.16
_cell_angle_alpha 90.
_cell_angle_beta 90.
_cell_angle_gamma 90.
_cell_volume 352.56
_cell_formula_units_Z 4
_space_group_name_H-M_alt 'P n m a'
_space_group_IT_number 62
loop_
_space_group_symop_id
_space_group_symop_operation_xyz
1 'x+1/2, y, -z+1/2'
2 'x, -y+1/2, z'
3 '-x+1/2, y+1/2, z+1/2'
4 '-x, -y, -z'
5 '-x+1/2, -y, z+1/2'
6 '-x, y+1/2, -z'
7 'x+1/2, -y+1/2, -z+1/2'
8 'x, y, z'
loop_
_atom_type_symbol
_atom_type_oxidation_number
Ge4+ 4
O2- -2
Li1+ 1
Mg2+ 2
Li1+ 1
Mg2+ 2
loop_
_atom_site_label
_atom_site_type_symbol
_atom_site_symmetry_multiplicity
_atom_site_Wyckoff_symbol
_atom_site_fract_x
_atom_site_fract_y
_atom_site_fract_z
_atom_site_B_iso_or_equiv
_atom_site_occupancy
Ge1 Ge4+ 4 c 0.4140(3) 0.25 0.6680(10) 0.95(5) 1.
O1 O2- 4 c 0.4126(20) 0.25 0.3411(20) 1.10(5) 1.
O2 O2- 4 c 0.5630(19) 0.25 0.7886(20) 1.06(5) 1.
O3 O2- 8 d 0.3346(14) 0.0244(26) 0.7957(20) 1.70(5) 1.
Li1 Li1+ 8 d 0.3362(16) 0.0050(20) 0.1852(20) 2.00(10) 0.667
Mg1 Mg2+ 8 d 0.3362(16) 0.0050(20) 0.1852(20) 2.00(10) 0.333
Li2 Li1+ 4 c 0.5752(20) 0.25 0.1756(20) 1.90(10) 0.667
Mg2 Mg2+ 4 c 0.5752(20) 0.25 0.1756(20) 1.90(10) 0.333
#End of TTdata_166547-ICSD
