(C) 2022 by FIZ Karlsruhe - Leibniz Institute for Information Infrastructure.  All rights reserved.
data_193487-ICSD
_database_code_ICSD 193487
_audit_creation_date 2015-08-01
_chemical_name_common 'Lithium vanadophosphate'
_chemical_formula_structural 'Li3 ((P0.27 V0.73) O4)'
_chemical_formula_sum 'Li3 O4 P0.27 V0.73'
_chemical_name_structure_type Mg2PO4Cl
_exptl_crystal_density_diffrn 2.54
_diffrn_ambient_temperature 293.
_citation_title
'Crystal structure of a new modification of lithium vanadate Li3 (V, P) O4'
loop_
_citation_id
_citation_journal_full
_citation_year
_citation_journal_volume
_citation_page_first
_citation_page_last
_citation_journal_id_ASTM
primary 'Crystallography Reports' 2014 59 699 704 CYSTE3
loop_
_citation_author_citation_id
_citation_author_name
primary 'Yakovleva, E.V.'
primary 'Yakubovich, O.V.'
primary 'Dimitrova, O.V.'
_cell_length_a 4.9450(10)
_cell_length_b 6.3050(12)
_cell_length_c 10.921(2)
_cell_angle_alpha 90.
_cell_angle_beta 90.
_cell_angle_gamma 90.
_cell_volume 340.5
_cell_formula_units_Z 4
_space_group_name_H-M_alt 'P 21 c n'
_space_group_IT_number 33
loop_
_space_group_symop_id
_space_group_symop_operation_xyz
1 'x, -y+1/2, z+1/2'
2 'x+1/2, y+1/2, -z+1/2'
3 'x+1/2, -y, -z'
4 'x, y, z'
loop_
_atom_type_symbol
_atom_type_oxidation_number
V5+ 5
P5+ 5
Li1+ 1
O2- -2
loop_
_atom_site_label
_atom_site_type_symbol
_atom_site_symmetry_multiplicity
_atom_site_Wyckoff_symbol
_atom_site_fract_x
_atom_site_fract_y
_atom_site_fract_z
_atom_site_U_iso_or_equiv
_atom_site_occupancy
V1 V5+ 4 a 0.35649(15) 0.24951(12) 0.33517(2) 0.00623(9) 0.73(1)
P1 P5+ 4 a 0.35649(15) 0.24951(12) 0.33517(2) 0.00623(9) 0.27(1)
Li1 Li1+ 4 a 0.372(2) 0.0029(5) 0.0876(7) 0.0091(4) 1
Li2 Li1+ 4 a 0.358(2) 0.0015(5) 0.5804(7) 0.0091(4) 1
Li3 Li1+ 4 a 0.3679(18) -0.2457(11) 0.3334(2) 0.0091(4) 1
O1 O2- 4 a 0.4693(4) 0.0243(3) 0.4139(3) 0.0147(4) 1
O2 O2- 4 a 0.4640(3) 0.2429(4) 0.18472(13) 0.0127(3) 1
O3 O2- 4 a 0.0099(3) 0.2557(4) 0.33636(13) 0.0122(4) 1
O4 O2- 4 a 0.4622(4) 0.4738(3) 0.4068(2) 0.0106(4) 1
loop_
_atom_site_aniso_label
_atom_site_aniso_type_symbol
_atom_site_aniso_U_11
_atom_site_aniso_U_22
_atom_site_aniso_U_33
_atom_site_aniso_U_12
_atom_site_aniso_U_13
_atom_site_aniso_U_23
V1 V5+ 0.00598(13) 0.00611(13) 0.00659(13) -0.0006(2) 0.00057(17) 0.00052(19)
P1 P5+ 0.00598(13) 0.00611(13) 0.00659(13) -0.0006(2) 0.00057(17) 0.00052(19)
Li1 Li1+ 0.0074(9) 0.0105(7) 0.0092(8) -0.0016(16) 0.0023(12) 0.0002(6)
Li2 Li1+ 0.0074(9) 0.0105(7) 0.0092(8) -0.0016(16) 0.0023(12) 0.0002(6)
Li3 Li1+ 0.0074(9) 0.0105(7) 0.0092(8) -0.0016(16) 0.0023(12) 0.0002(6)
O1 O2- 0.0187(11) 0.0076(7) 0.0178(11) 0.0011(8) -0.0080(13) -0.0024(6)
O2 O2- 0.0159(7) 0.0104(6) 0.0119(6) -0.0097(12) -0.0003(7) 0.0050(8)
O3 O2- 0.0127(9) 0.0103(7) 0.0135(8) -0.0027(11) 0.0013(5) -0.0028(8)
O4 O2- 0.0089(8) 0.0166(8) 0.0063(8) -0.0001(7) 0.0035(11) -0.0034(6)
#End of TTdata_193487-ICSD
#
