(C) 2022 by FIZ Karlsruhe - Leibniz Institute for Information Infrastructure.  All rights reserved.
data_247485-ICSD
_database_code_ICSD 247485
_audit_creation_date 2011-02-01
_chemical_name_common 'Lithium iron(II) silicate'
_chemical_formula_structural 'Li2 Fe (Si O4)'
_chemical_formula_sum 'Fe1 Li2 O4 Si1'
_chemical_name_structure_type Li3PO4
_exptl_crystal_density_diffrn 3.19
_citation_title 'Crystal structure of a new polymorph of Li2 Fe Si O4'
loop_
_citation_id
_citation_journal_full
_citation_year
_citation_journal_volume
_citation_page_first
_citation_page_last
_citation_journal_id_ASTM
primary 'Inorganic Chemistry' 2010 49 7446 7451 INOCAJ
loop_
_citation_author_citation_id
_citation_author_name
primary 'Sirisopanaporn, C.'
primary 'Boulineau, A.'
primary 'Hanzel, D.'
primary 'Dominko, R.'
primary 'Budic, B.'
primary 'Armstrong, A.R.'
primary 'Bruce, P.G.'
primary 'Masquelier, C.'
_cell_length_a 6.28377(7)
_cell_length_b 10.6573(1)
_cell_length_c 5.0385(1)
_cell_angle_alpha 90.
_cell_angle_beta 90.
_cell_angle_gamma 90.
_cell_volume 337.42
_cell_formula_units_Z 4
_space_group_name_H-M_alt 'P m n b'
_space_group_IT_number 62
loop_
_space_group_symop_id
_space_group_symop_operation_xyz
1 'x, y+1/2, -z+1/2'
2 '-x+1/2, y, z'
3 'x+1/2, -y+1/2, z+1/2'
4 '-x, -y, -z'
5 '-x, -y+1/2, z+1/2'
6 'x+1/2, -y, -z'
7 '-x+1/2, y+1/2, -z+1/2'
8 'x, y, z'
loop_
_atom_type_symbol
_atom_type_oxidation_number
Li1+ 1
Fe2+ 2
Si4+ 4
O2- -2
loop_
_atom_site_label
_atom_site_type_symbol
_atom_site_symmetry_multiplicity
_atom_site_Wyckoff_symbol
_atom_site_fract_x
_atom_site_fract_y
_atom_site_fract_z
_atom_site_B_iso_or_equiv
_atom_site_occupancy
Li1 Li1+ 8 d 0.0044(4) 0.3302(3) 0.2163(6) 1.05(3) 1.
Fe1 Fe2+ 4 c 0.25 0.58133(6) 0.2016(2) 0.687(9) 1.
Si1 Si4+ 4 c 0.25 0.4164(1) 0.6970(3) 0.34(1) 1.
O1 O2- 4 c 0.25 0.4107(1) 0.3710(2) 0.62(1) 1.
O2 O2- 4 c 0.25 0.5631(1) 0.7809(3) 0.57(1) 1.
O3 O2- 8 d 0.0384(1) 0.34383(6) 0.8055(2) 0.535(8) 1.
#End of TTdata_247485-ICSD
#
