(C) 2022 by FIZ Karlsruhe - Leibniz Institute for Information Infrastructure.  All rights reserved.
data_263125-ICSD
_database_code_ICSD 263125
_audit_creation_date 2013-02-01
_chemical_name_common 'Dilithium manganese(II) silicate'
_chemical_formula_structural 'Li2 Mn Si O4'
_chemical_formula_sum 'Li2 Mn1 O4 Si1'
_chemical_name_structure_type Enargite#Cu3AsS4
_exptl_crystal_density_diffrn 3.17
_diffrn_ambient_temperature 295.
_citation_title

;
Redetermination of the low-temperature polymorph of Li2 Mn Si O4 from
single-crystal X-ray data
;
loop_
_citation_id
_citation_journal_full
_citation_year
_citation_journal_volume
_citation_page_first
_citation_page_last
_citation_journal_id_ASTM
primary 'Acta Crystallographica, Section E: Structure Reports Online' 2012 68
i68 i69 ACSEBH
loop_
_citation_author_citation_id
_citation_author_name
primary 'Sato, M.'
primary 'Ishigaki, T.'
primary 'Uematsu, K.'
primary 'Toda, K.'
primary 'Okawa, H.'
_cell_length_a 6.3133(16)
_cell_length_b 5.3677(14)
_cell_length_c 4.9685(12)
_cell_angle_alpha 90
_cell_angle_beta 90
_cell_angle_gamma 90
_cell_volume 168.37
_cell_formula_units_Z 2
_space_group_name_H-M_alt 'P m n 21'
_space_group_IT_number 31
loop_
_space_group_symop_id
_space_group_symop_operation_xyz
1 'x+1/2, -y, z+1/2'
2 '-x+1/2, -y, z+1/2'
3 '-x, y, z'
4 'x, y, z'
loop_
_atom_type_symbol
_atom_type_oxidation_number
Li1+ 1
Mn2+ 2
Si4+ 4
O2- -2
loop_
_atom_site_label
_atom_site_type_symbol
_atom_site_symmetry_multiplicity
_atom_site_Wyckoff_symbol
_atom_site_fract_x
_atom_site_fract_y
_atom_site_fract_z
_atom_site_U_iso_or_equiv
_atom_site_occupancy
Li1 Li1+ 4 b 0.7503(4) -0.1688(4) 0.995(5) 0.0090(7) 1
Mn1 Mn2+ 2 a 0.5 0.33172(5) 0.9968 0.00733(15) 1
Si1 Si4+ 2 a 1 0.32090(9) 0.9851(3) 0.00350(17) 1
O1 O2- 2 a 0.5 0.6868(3) 1.1569(5) 0.0071(5) 1
O2 O2- 2 a 0.5 0.3867(3) 0.5804(4) 0.0081(4) 1
O3 O2- 4 b 0.7887(2) 0.1799(2) 1.0979(4) 0.0075(3) 1
loop_
_atom_site_aniso_label
_atom_site_aniso_type_symbol
_atom_site_aniso_U_11
_atom_site_aniso_U_22
_atom_site_aniso_U_33
_atom_site_aniso_U_12
_atom_site_aniso_U_13
_atom_site_aniso_U_23
Li1 Li1+ 0.0084(17) 0.0061(15) 0.0125(15) -0.0009(7) 0.0000(14) -0.002(2)
Mn1 Mn2+ 0.0055(2) 0.0072(2) 0.0093(2) 0 0 0.0000(2)
Si1 Si4+ 0.0035(3) 0.0028(3) 0.0042(4) 0 0 -0.0003(3)
O1 O2- 0.0075(9) 0.0083(8) 0.0056(11) 0 0 -0.0004(6)
O2 O2- 0.0098(8) 0.0048(7) 0.0096(10) 0 0 0.0001(7)
O3 O2- 0.0068(5) 0.0067(6) 0.0089(7) -0.0009(4) 0.0008(7) 0.0000(5)
#End of TTdata_263125-ICSD
#
