(C) 2022 by FIZ Karlsruhe - Leibniz Institute for Information Infrastructure.  All rights reserved.
data_8280-ICSD
_database_code_ICSD 8280
_audit_creation_date 1980-01-01
_audit_update_record 2013-08-01
_chemical_name_common 'Dilithium magnesium germanate'
_chemical_formula_structural 'Li2 Mg Ge O4'
_chemical_formula_sum 'Ge1 Li2 Mg1 O4'
_chemical_name_structure_type Li3PO4
_exptl_crystal_density_diffrn 3.37
_citation_title

;
Etude de la serie Li2 M(II) Ge O4 (M = Mg, Ca, Fe ,Co, Ni Zn, Cd). Relations
structurales entre le germanate mixte Li2 Mg Ge O4 (Ht) et les composes Li3 P
O4 (Ht), Li4 Ge O4 (gamma) et Mg2 Ge O4 (Olivine)
;
loop_
_citation_id
_citation_journal_full
_citation_year
_citation_journal_volume
_citation_page_first
_citation_page_last
_citation_journal_id_ASTM
primary 'Revue de Chimie Minerale' 1976 13 422 432 RVCMA8
loop_
_citation_author_citation_id
_citation_author_name
primary 'Monnaye, B.'
_cell_length_a 10.796(3)
_cell_length_b 6.224(3)
_cell_length_c 5.123(3)
_cell_angle_alpha 90.
_cell_angle_beta 90.
_cell_angle_gamma 90.
_cell_volume 344.24
_cell_formula_units_Z 4
_space_group_name_H-M_alt 'P n m a'
_space_group_IT_number 62
loop_
_space_group_symop_id
_space_group_symop_operation_xyz
1 'x+1/2, y, -z+1/2'
2 'x, -y+1/2, z'
3 '-x+1/2, y+1/2, z+1/2'
4 '-x, -y, -z'
5 '-x+1/2, -y, z+1/2'
6 '-x, y+1/2, -z'
7 'x+1/2, -y+1/2, -z+1/2'
8 'x, y, z'
loop_
_atom_type_symbol
_atom_type_oxidation_number
Ge4+ 4
O2- -2
Li1+ 1
Mg2+ 2
Li1+ 1
Mg2+ 2
loop_
_atom_site_label
_atom_site_type_symbol
_atom_site_symmetry_multiplicity
_atom_site_Wyckoff_symbol
_atom_site_fract_x
_atom_site_fract_y
_atom_site_fract_z
_atom_site_B_iso_or_equiv
_atom_site_occupancy
Ge1 Ge4+ 4 c 0.4141(3) 0.25 0.6675(10) 0.8 1.
O1 O2- 4 c 0.4125(20) 0.25 0.3225(20) 1.17 1.
O2 O2- 4 c 0.5644(19) 0.25 0.7835(20) 0.93 1.
O3 O2- 8 d 0.3359(14) 0.0244(26) 0.7911(20) 1.3 1.
Li1 Li1+ 8 d 0.3348(16) 0.0087(20) 0.1911(20) 2. 0.67
Mg1 Mg2+ 8 d 0.3348(16) 0.0087(20) 0.1911(20) 2. 0.33
Li2 Li1+ 4 c 0.573(2) 0.25 0.1826(20) 1.9 0.67
Mg2 Mg2+ 4 c 0.573(2) 0.25 0.1826(20) 1.9 0.33
#End of TTdata_8280-ICSD
#
