(C) 2022 by FIZ Karlsruhe - Leibniz Institute for Information Infrastructure.  All rights reserved.
data_154911-ICSD
_database_code_ICSD 154911
_audit_creation_date 2007-04-01
_chemical_name_common 'Lithium zinc vanadium oxide (1.05/0.98/0.97/4)'
_chemical_formula_structural 'Li1.048 Zn0.982 (V0.974 O4)'
_chemical_formula_sum 'Li1.048 O4 V0.974 Zn0.982'
_chemical_name_structure_type Phenakite#Be2SiO4#Willemite(I)
_exptl_crystal_density_diffrn 3.35
_citation_title

;
Cation distribution in Li Mg V O4 and Li Zn V O4: structural and spectroscopic
study
;
loop_
_citation_id
_citation_journal_full
_citation_year
_citation_journal_volume
_citation_page_first
_citation_page_last
_citation_journal_id_ASTM
primary 'Journal of Physical Chemistry B' 2006 110 5409 5415 JPCBFK
loop_
_citation_author_citation_id
_citation_author_name
primary 'Capsoni, D.'
primary 'Bini, M.'
primary 'Massarotti, V.'
primary 'Mustarelli, P.'
primary 'Belotti, F.'
primary 'Galinetto, P.'
_cell_length_a 14.1857(1)
_cell_length_b 14.1857(1)
_cell_length_c 9.4879(1)
_cell_angle_alpha 90.
_cell_angle_beta 90.
_cell_angle_gamma 120.
_cell_volume 1653.49
_cell_formula_units_Z 18
_space_group_name_H-M_alt 'R -3 H'
_space_group_IT_number 148
loop_
_space_group_symop_id
_space_group_symop_operation_xyz
1 'x-y, x, -z'
2 'y, -x+y, -z'
3 '-x, -y, -z'
4 '-x+y, -x, z'
5 '-y, x-y, z'
6 'x, y, z'
7 'x-y+2/3, x+1/3, -z+1/3'
8 'y+2/3, -x+y+1/3, -z+1/3'
9 '-x+2/3, -y+1/3, -z+1/3'
10 '-x+y+2/3, -x+1/3, z+1/3'
11 '-y+2/3, x-y+1/3, z+1/3'
12 'x+2/3, y+1/3, z+1/3'
13 'x-y+1/3, x+2/3, -z+2/3'
14 'y+1/3, -x+y+2/3, -z+2/3'
15 '-x+1/3, -y+2/3, -z+2/3'
16 '-x+y+1/3, -x+2/3, z+2/3'
17 '-y+1/3, x-y+2/3, z+2/3'
18 'x+1/3, y+2/3, z+2/3'
loop_
_atom_type_symbol
_atom_type_oxidation_number
V5+ 5
Zn2+ 2
Li1+ 1
V5+ 5
Zn2+ 2
Li1+ 1
V5+ 5
Zn2+ 2
Li1+ 1
O2- -2
loop_
_atom_site_label
_atom_site_type_symbol
_atom_site_symmetry_multiplicity
_atom_site_Wyckoff_symbol
_atom_site_fract_x
_atom_site_fract_y
_atom_site_fract_z
_atom_site_B_iso_or_equiv
_atom_site_occupancy
V1 V5+ 18 f 0.1918(2) 0.9769(2) 0.7471(5) 0.12(6) 0.251(2)
Zn1 Zn2+ 18 f 0.1918(2) 0.9769(2) 0.7471(5) 0.12(6) 0.198(2)
Li1 Li1+ 18 f 0.1918(2) 0.9769(2) 0.7471(5) 0.12(6) 0.553(2)
V2 V5+ 18 f 0.1957(2) 0.9825(2) 0.4141(3) 0.05(5) 0.255(5)
Zn2 Zn2+ 18 f 0.1957(2) 0.9825(2) 0.4141(3) 0.05(5) 0.465(4)
Li2 Li1+ 18 f 0.1957(2) 0.9825(2) 0.4141(3) 0.05(5) 0.291(4)
V3 V5+ 18 f 0.1880(2) 0.9772(1) 0.0808(3) 0.84(6) 0.468(5)
Zn3 Zn2+ 18 f 0.1880(2) 0.9772(1) 0.0808(3) 0.84(6) 0.319(4)
Li3 Li1+ 18 f 0.1880(2) 0.9772(1) 0.0808(3) 0.84(6) 0.204(4)
O1 O2- 18 f 0.2145(3) 0.1322(3) 0.7518(9) -0.89(8) 1.
O2 O2- 18 f 0.3371(4) -0.0103(4) 0.7486(11) -1.74(6) 1.
O3 O2- 18 f 0.1154(5) 0.8976(4) 0.9293(9) 0.74(14) 1.
O4 O2- 18 f 0.1235(4) 0.9056(5) 0.5602(7) -0.15(14) 1.
#End of TTdata_154911-ICSD
#
