(C) 2022 by FIZ Karlsruhe - Leibniz Institute for Information Infrastructure.  All rights reserved.
data_290832-ICSD
_database_code_ICSD 290832
_audit_creation_date 2014-08-01
_chemical_name_common 'Tetralithium tin(IV) tetrasulfide'
_chemical_formula_structural 'Li4 Sn S4'
_chemical_formula_sum 'Li4 S4 Sn1'
_chemical_name_structure_type Li4GeS4
_exptl_crystal_density_diffrn 2.55
_diffrn_ambient_temperature 296.
_citation_title

;
Synthesis, structure, physicochemical characterization and electronic
structure of thio-lithium super ionic conductors, Li4 Ge S4 and Li4 Sn S4
;
loop_
_citation_id
_citation_journal_full
_citation_year
_citation_journal_volume
_citation_page_first
_citation_page_last
_citation_journal_id_ASTM
primary 'Journal of Alloys and Compounds' 2014 586 736 744 JALCEU
loop_
_citation_author_citation_id
_citation_author_name
primary 'MacNeil, Joseph H.'
primary 'Massi, Danielle M.'
primary 'Zhang, Jian-Han'
primary 'Rosmus, Kimberly A.'
primary 'Brunetta, Carl D.'
primary 'Gentile, Taylor A.'
primary 'Aitken, Jennifer A.'
_cell_length_a 14.305(4)
_cell_length_b 7.899(2)
_cell_length_c 6.328(2)
_cell_angle_alpha 90.
_cell_angle_beta 90.
_cell_angle_gamma 90.
_cell_volume 715.03
_cell_formula_units_Z 4
_space_group_name_H-M_alt 'P n m a'
_space_group_IT_number 62
loop_
_space_group_symop_id
_space_group_symop_operation_xyz
1 'x+1/2, y, -z+1/2'
2 'x, -y+1/2, z'
3 '-x+1/2, y+1/2, z+1/2'
4 '-x, -y, -z'
5 '-x+1/2, -y, z+1/2'
6 '-x, y+1/2, -z'
7 'x+1/2, -y+1/2, -z+1/2'
8 'x, y, z'
loop_
_atom_type_symbol
_atom_type_oxidation_number
Li1+ 1
Sn4+ 4
S2- -2
loop_
_atom_site_label
_atom_site_type_symbol
_atom_site_symmetry_multiplicity
_atom_site_Wyckoff_symbol
_atom_site_fract_x
_atom_site_fract_y
_atom_site_fract_z
_atom_site_U_iso_or_equiv
_atom_site_occupancy
Li1 Li1+ 4 a 0 0 0 0.044(1) 1.
Li2 Li1+ 4 c 0.4085(3) 0.25 0.1257(6) 0.029(1) 1.
Li3 Li1+ 8 d 0.1777(2) 0.0035(4) 0.1785(5) 0.032(1) 1.
Sn1 Sn4+ 4 c 0.0915(1) 0.25 0.6420(1) 0.014(1) 1.
S1 S2- 4 c 0.0830(1) 0.25 0.2671(1) 0.016(1) 1.
S2 S2- 8 d 0.1608(1) 0.0013(1) 0.7835(1) 0.017(1) 1.
S3 S2- 4 c 0.4323(1) 0.25 0.7659(1) 0.016(1) 1.
#End of TTdata_290832-ICSD
#
