(C) 2022 by FIZ Karlsruhe - Leibniz Institute for Information Infrastructure.  All rights reserved.
data_238601-ICSD
_database_code_ICSD 238601
_audit_creation_date 2016-02-01
_chemical_name_common 'Lithium silicate phosphate *'
_chemical_formula_structural 'Li6.6 Si P O8'
_chemical_formula_sum 'Li6.6 O8 P1 Si1'
_exptl_crystal_density_diffrn 2.39
_diffrn_ambient_temperature 300.
_citation_title

;
Structural and mechanistic insights into fast lithium-ion conduction in Li4 Si
O4 - Li3 P O4 solid electrolytes
;
loop_
_citation_id
_citation_journal_full
_citation_year
_citation_journal_volume
_citation_page_first
_citation_page_last
_citation_journal_id_ASTM
primary 'Journal of the American Chemical Society' 2015 137 9136 9145 JACSAT
loop_
_citation_author_citation_id
_citation_author_name
primary 'Deng, Yue'
primary 'Eames, Christopher'
primary 'Chotard, Jean-Noel'
primary 'Lalere, Fabien'
primary 'Seznec, Vincent'
primary 'Emge, Steffen'
primary 'Pecher, Oliver'
primary 'Grey, Clare P.'
primary 'Masquelier, Christian'
primary 'Islam, M. Saiful'
_cell_length_a 10.58917(10)
_cell_length_b 6.11520(6)
_cell_length_c 5.00565(4)
_cell_angle_alpha 90.
_cell_angle_beta 90.
_cell_angle_gamma 90.
_cell_volume 324.13
_cell_formula_units_Z 2
_space_group_name_H-M_alt 'P n m a'
_space_group_IT_number 62
loop_
_space_group_symop_id
_space_group_symop_operation_xyz
1 'x+1/2, y, -z+1/2'
2 'x, -y+1/2, z'
3 '-x+1/2, y+1/2, z+1/2'
4 '-x, -y, -z'
5 '-x+1/2, -y, z+1/2'
6 '-x, y+1/2, -z'
7 'x+1/2, -y+1/2, -z+1/2'
8 'x, y, z'
loop_
_atom_type_symbol
_atom_type_oxidation_number
O2- -2
Li1+ 1
P5+ 5
Si4+ 4
O2- -2
loop_
_atom_site_label
_atom_site_type_symbol
_atom_site_symmetry_multiplicity
_atom_site_Wyckoff_symbol
_atom_site_fract_x
_atom_site_fract_y
_atom_site_fract_z
_atom_site_U_iso_or_equiv
_atom_site_occupancy
O1 O2- 8 d 0.3405(2) 0.0382(3) 0.2201(4) 0.0120(10) 1.
Li1 Li1+ 8 d 0.3374(10) 0.0032(11) 0.8109(14) 0.0118(15) 0.781(16)
Li2 Li1+ 4 c 0.5707(13) 0.25 0.8174(18) 0.0118(15) 0.798(20)
Li3 Li1+ 4 c 0.618(5) 0.25 0.629(12) 0.0118(15) 0.156(19)
Li4 Li1+ 8 d 0.482(5) 0.449(8) 0.945(9) 0.0118(15) 0.119(11)
Li5 Li1+ 8 d 0.653(4) 0.464(5) 0.368(6) 0.0118(15) 0.200(14)
Li6 Li1+ 4 c 0.711(6) 0.25 0.515(11) 0.0118(15) 0.144(17)
P1 P5+ 4 c 0.4112(4) 0.25 0.3250(6) 0.0085(18) 0.5
Si1 Si4+ 4 c 0.4112(4) 0.25 0.3250(6) 0.0085(18) 0.5
O2 O2- 4 c 0.0528(2) 0.25 0.2807(5) 0.0083(15) 1.
O3 O2- 4 c 0.4105(3) 0.25 0.6423(5) 0.0122(16) 1.
loop_
_atom_site_aniso_label
_atom_site_aniso_type_symbol
_atom_site_aniso_U_11
_atom_site_aniso_U_22
_atom_site_aniso_U_33
_atom_site_aniso_U_12
_atom_site_aniso_U_13
_atom_site_aniso_U_23
O1 O2- 0.0091(11) 0.0144(9) 0.0125(10) 0.0000(10) 0.0004(9) -0.0017(8)
P1 P5+ 0.0093(18) 0.0070(18) 0.0093(17) 0. 0.0009(17) 0.
Si1 Si4+ 0.0093(18) 0.0070(18) 0.0093(17) 0.00328 0.0009(17) 0.00155
O2 O2- 0.0061(16) 0.0060(13) 0.0127(15) 0. -0.0025(12) 0.
O3 O2- 0.0119(16) 0.0134(17) 0.0113(15) 0. 0.0020(14) 0.
#End of TTdata_238601-ICSD
