(C) 2022 by FIZ Karlsruhe - Leibniz Institute for Information Infrastructure.  All rights reserved.
data_202768-ICSD
_database_code_ICSD 202768
_audit_creation_date 1989-12-04
_chemical_name_common 'Pentalithium trilanthanum diniobate'
_chemical_formula_structural 'La3 Li5 Nb2 O12'
_chemical_formula_sum 'La3 Li5 Nb2 O12'
_chemical_name_structure_type Li5La3Nb2O12(I213)
_exptl_crystal_density_diffrn 5.26
_diffrn_ambient_temperature 298.
_citation_title 'Crystal structures of La3 Li5 M2 O12 (M=Nb,Ta)'
loop_
_citation_id
_citation_journal_full
_citation_year
_citation_journal_volume
_citation_page_first
_citation_page_last
_citation_journal_id_ASTM
primary 'Materials Research Bulletin' 1988 23 1399 1407 MRBUAC
loop_
_citation_author_citation_id
_citation_author_name
primary 'Hyooma, H.'
primary 'Hayashi, K.'
_cell_length_a 12.797
_cell_length_b 12.797
_cell_length_c 12.797
_cell_angle_alpha 90.
_cell_angle_beta 90.
_cell_angle_gamma 90.
_cell_volume 2095.68
_cell_formula_units_Z 8
_space_group_name_H-M_alt 'I 21 3'
_space_group_IT_number 199
loop_
_space_group_symop_id
_space_group_symop_operation_xyz
1 '-z+1/2, -x, y+1/2'
2 '-y+1/2, -z, x+1/2'
3 '-x+1/2, -y, z+1/2'
4 '-z, x+1/2, -y+1/2'
5 '-y, z+1/2, -x+1/2'
6 '-x, y+1/2, -z+1/2'
7 'z+1/2, -x+1/2, -y'
8 'y+1/2, -z+1/2, -x'
9 'x+1/2, -y+1/2, -z'
10 'z, x, y'
11 'y, z, x'
12 'x, y, z'
13 '-z, -x+1/2, y'
14 '-y, -z+1/2, x'
15 '-x, -y+1/2, z'
16 '-z+1/2, x, -y'
17 '-y+1/2, z, -x'
18 '-x+1/2, y, -z'
19 'z, -x, -y+1/2'
20 'y, -z, -x+1/2'
21 'x, -y, -z+1/2'
22 'z+1/2, x+1/2, y+1/2'
23 'y+1/2, z+1/2, x+1/2'
24 'x+1/2, y+1/2, z+1/2'
loop_
_atom_type_symbol
_atom_type_oxidation_number
La3+ 3
Nb5+ 5
O2- -2
Li1+ 1
loop_
_atom_site_label
_atom_site_type_symbol
_atom_site_symmetry_multiplicity
_atom_site_Wyckoff_symbol
_atom_site_fract_x
_atom_site_fract_y
_atom_site_fract_z
_atom_site_B_iso_or_equiv
_atom_site_occupancy
La1 La3+ 12 b 0.1264(1) 0 0.25 . 1.
La2 La3+ 12 b 0.6235(1) 0 0.25 . 1.
Nb1 Nb5+ 8 a 0 0 0 . 1.
Nb2 Nb5+ 8 a 0.25 0.25 0.25 . 1.
O1 O2- 24 c 0.2793(4) 0.1024(4) 0.2011(4) . 1.
O2 O2- 24 c 0.2170(6) 0.3926(6) 0.3049(6) . 1.
O3 O2- 24 c 0.3576(6) 0.5284(6) 0.4440(6) . 1.
O4 O2- 24 c 0.6457(4) 0.4683(4) 0.5508(4) . 1.
Li1 Li1+ 24 c 0.6036 0.3074 0.5331 . 0.667
Li2 Li1+ 24 c 0.4539 0.3825 0.6967 . 1.
loop_
_atom_site_aniso_label
_atom_site_aniso_type_symbol
_atom_site_aniso_beta_11
_atom_site_aniso_beta_22
_atom_site_aniso_beta_33
_atom_site_aniso_beta_12
_atom_site_aniso_beta_13
_atom_site_aniso_beta_23
La1 La3+ 0.000989 0.000893 0.000941 0 0 0.000193
La2 La3+ 0.001061 0.000936 0.000886 0 0 0
Nb1 Nb5+ 0.001248 0.001248 0.001248 0 0 0
Nb2 Nb5+ 0.001232 0.001232 0.001232 0 0 0
O1 O2- 0.000265 0.00051 0.000587 0.000109 0.000117 0
O2 O2- 0.002242 0.001717 0.00143 0 0 0
O3 O2- 0.001403 0.001604 0.001685 0 0 0
O4 O2- 0.000736 0.000656 0.000306 0.000086 0 0.000144
Li1 Li1+ 0.003697 0.001789 0.00537 0 0 0
Li2 Li1+ 0.002898 0.00332 0.003369 0 0 0
#End of TTdata_202768-ICSD
