(C) 2022 by FIZ Karlsruhe - Leibniz Institute for Information Infrastructure.  All rights reserved.
data_54865-ICSD
_database_code_ICSD 54865
_audit_creation_date 2005-10-01
_audit_update_record 2012-08-01
_chemical_name_common 'Pentalithium trilanthanum diniobium dodecaoxide'
_chemical_formula_structural 'Li5 La3 Nb2 O12'
_chemical_formula_sum 'La3 Li5 Nb2 O12'
_chemical_name_structure_type Li5La3Nb2O12(I213)
_exptl_crystal_density_diffrn 5.22
_citation_title

;
Crystal structure revision and identification of Li(+)-ion migration pathways
in the garnet-like Li5 La3 M2 O12 (M = Nb, Ta) oxides
;
loop_
_citation_id
_citation_journal_full
_citation_year
_citation_journal_volume
_citation_page_first
_citation_page_last
_citation_journal_id_ASTM
primary 'Chemistry of Materials' 2004 16 2998 3006 CMATEX
loop_
_citation_author_citation_id
_citation_author_name
primary 'Thangadurai, V.'
primary 'Adams, S.'
primary 'Weppner, W.'
_cell_length_a 12.826
_cell_length_b 12.826
_cell_length_c 12.826
_cell_angle_alpha 90.
_cell_angle_beta 90.
_cell_angle_gamma 90.
_cell_volume 2109.96
_cell_formula_units_Z 8
_space_group_name_H-M_alt 'I 21 3'
_space_group_IT_number 199
loop_
_space_group_symop_id
_space_group_symop_operation_xyz
1 '-z+1/2, -x, y+1/2'
2 '-y+1/2, -z, x+1/2'
3 '-x+1/2, -y, z+1/2'
4 '-z, x+1/2, -y+1/2'
5 '-y, z+1/2, -x+1/2'
6 '-x, y+1/2, -z+1/2'
7 'z+1/2, -x+1/2, -y'
8 'y+1/2, -z+1/2, -x'
9 'x+1/2, -y+1/2, -z'
10 'z, x, y'
11 'y, z, x'
12 'x, y, z'
13 '-z, -x+1/2, y'
14 '-y, -z+1/2, x'
15 '-x, -y+1/2, z'
16 '-z+1/2, x, -y'
17 '-y+1/2, z, -x'
18 '-x+1/2, y, -z'
19 'z, -x, -y+1/2'
20 'y, -z, -x+1/2'
21 'x, -y, -z+1/2'
22 'z+1/2, x+1/2, y+1/2'
23 'y+1/2, z+1/2, x+1/2'
24 'x+1/2, y+1/2, z+1/2'
loop_
_atom_type_symbol
_atom_type_oxidation_number
La3+ 3
Nb5+ 5
O2- -2
Li1+ 1
loop_
_atom_site_label
_atom_site_type_symbol
_atom_site_symmetry_multiplicity
_atom_site_Wyckoff_symbol
_atom_site_fract_x
_atom_site_fract_y
_atom_site_fract_z
_atom_site_B_iso_or_equiv
_atom_site_occupancy
La1 La3+ 12 b 0.1264(1) 0 0.25 . 1.
La2 La3+ 12 b -0.1235(1) 0 0.75 . 1.
Nb1 Nb5+ 8 a 0 0 0 . 1.
Nb2 Nb5+ 8 a 0.25 0.25 0.25 . 1.
O1 O2- 24 c 0.2793(4) 0.1024(4) 0.1989(4) . 1.
O2 O2- 24 c -0.2830(6) -0.1074(6) -.1951(6) . 1.
O3 O2- 24 c 0.3576(6) 0.5284(6) 0.440(6) . 1.
O4 O2- 24 c -0.3543(4) -0.5317(4) -0.4492(4) . 1.
Li1 Li1+ 24 c 0.6036 0.3074 0.5351 . 0.833
Li2 Li1+ 24 c -0.6175 -0.3033 -0.5461 . 0.833
#End of TTdata_54865-ICSD
#
