(C) 2022 by FIZ Karlsruhe - Leibniz Institute for Information Infrastructure.  All rights reserved.
data_69076-ICSD
_database_code_ICSD 69076
_audit_creation_date 1992-01-20
_audit_update_record 2011-02-01
_chemical_name_common 'Trilanthanum pentalithium diantimony(V) oxide'
_chemical_formula_structural 'La3 Li5 Sb2 O12'
_chemical_formula_sum 'La3 Li5 O12 Sb2'
_chemical_name_structure_type Li5La3Nb2O12(I213)
_exptl_crystal_density_diffrn 5.56
_citation_title

;
Synthesis and structure determination of a new phase in the La2 O3 - Li2 O -
Sb2 O5 system
;
loop_
_citation_id
_citation_journal_full
_citation_year
_citation_journal_volume
_citation_page_first
_citation_page_last
_citation_journal_id_ASTM
primary 'Journal of the Less-Common Metals' 1991 167 381 385 JCOMAH
loop_
_citation_author_citation_id
_citation_author_name
primary 'Isasi, M.J.'
primary 'Veiga, M.L.'
primary 'Jerez, A.'
primary 'Pico, C.'
_cell_length_a 12.8460(5)
_cell_length_b 12.8460(5)
_cell_length_c 12.8460(5)
_cell_angle_alpha 90.
_cell_angle_beta 90.
_cell_angle_gamma 90.
_cell_volume 2119.84
_cell_formula_units_Z 8
_space_group_name_H-M_alt 'I 21 3'
_space_group_IT_number 199
loop_
_space_group_symop_id
_space_group_symop_operation_xyz
1 '-z+1/2, -x, y+1/2'
2 '-y+1/2, -z, x+1/2'
3 '-x+1/2, -y, z+1/2'
4 '-z, x+1/2, -y+1/2'
5 '-y, z+1/2, -x+1/2'
6 '-x, y+1/2, -z+1/2'
7 'z+1/2, -x+1/2, -y'
8 'y+1/2, -z+1/2, -x'
9 'x+1/2, -y+1/2, -z'
10 'z, x, y'
11 'y, z, x'
12 'x, y, z'
13 '-z, -x+1/2, y'
14 '-y, -z+1/2, x'
15 '-x, -y+1/2, z'
16 '-z+1/2, x, -y'
17 '-y+1/2, z, -x'
18 '-x+1/2, y, -z'
19 'z, -x, -y+1/2'
20 'y, -z, -x+1/2'
21 'x, -y, -z+1/2'
22 'z+1/2, x+1/2, y+1/2'
23 'y+1/2, z+1/2, x+1/2'
24 'x+1/2, y+1/2, z+1/2'
loop_
_atom_type_symbol
_atom_type_oxidation_number
La3+ 3
Sb5+ 5
Li1+ 1
O2- -2
loop_
_atom_site_label
_atom_site_type_symbol
_atom_site_symmetry_multiplicity
_atom_site_Wyckoff_symbol
_atom_site_fract_x
_atom_site_fract_y
_atom_site_fract_z
_atom_site_B_iso_or_equiv
_atom_site_occupancy
La1 La3+ 12 b 0.132(7) 0 0.25 . 1.
La2 La3+ 12 b 0.627(3) 0 0.25 . 1.
Sb1 Sb5+ 8 a 0 0 0 . 1.
Sb2 Sb5+ 8 a 0.25 0.25 0.25 . 1.
Li1 Li1+ 24 c 0.603 0.307 0.533 . 0.833
Li2 Li1+ 24 c 0.453 0.382 0.696 . 0.833
O1 O2- 24 c 0.31 0.101(8) 0.190(8) . 1.
O2 O2- 24 c 0.224(1) 0.386 0.297 . 1.
O3 O2- 24 c 0.336(6) 0.53 0.477 . 1.
O4 O2- 24 c 0.637(6) 0.458(4) 0.554(1) . 1.
#End of TTdata_69076-ICSD
#
