(C) 2022 by FIZ Karlsruhe - Leibniz Institute for Information Infrastructure.  All rights reserved.
data_71213-ICSD
_database_code_ICSD 71213
_audit_creation_date 1993-01-06
_chemical_name_common 'Pentalithium trineodymium diantimony(V) oxide'
_chemical_formula_structural 'Li5 Nd3 Sb2 O12'
_chemical_formula_sum 'Li5 Nd3 O12 Sb2'
_chemical_name_structure_type Li5La3Nb2O12(I213)
_exptl_crystal_density_diffrn 5.89
_citation_title

;
Synthesis, structure determination and magnetic susceptibilities ofthe oxides
Ln3Li5Sb2O12 (Ln=Pr, Nd, Sm)
;
loop_
_citation_id
_citation_journal_full
_citation_year
_citation_journal_volume
_citation_page_first
_citation_page_last
_citation_journal_id_ASTM
primary 'Journal of Alloys and Compounds' 1991 177 251 257 JALCEU
loop_
_citation_author_citation_id
_citation_author_name
primary 'Isasi, M.J.'
primary 'Veiga, M.L.'
primary 'Saez-Puche, R.'
primary 'Jerez, A.'
primary 'Pico, C.'
_cell_length_a 12.674(5)
_cell_length_b 12.674(5)
_cell_length_c 12.674(5)
_cell_angle_alpha 90.
_cell_angle_beta 90.
_cell_angle_gamma 90.
_cell_volume 2035.83
_cell_formula_units_Z 8
_space_group_name_H-M_alt 'I 21 3'
_space_group_IT_number 199
loop_
_space_group_symop_id
_space_group_symop_operation_xyz
1 '-z+1/2, -x, y+1/2'
2 '-y+1/2, -z, x+1/2'
3 '-x+1/2, -y, z+1/2'
4 '-z, x+1/2, -y+1/2'
5 '-y, z+1/2, -x+1/2'
6 '-x, y+1/2, -z+1/2'
7 'z+1/2, -x+1/2, -y'
8 'y+1/2, -z+1/2, -x'
9 'x+1/2, -y+1/2, -z'
10 'z, x, y'
11 'y, z, x'
12 'x, y, z'
13 '-z, -x+1/2, y'
14 '-y, -z+1/2, x'
15 '-x, -y+1/2, z'
16 '-z+1/2, x, -y'
17 '-y+1/2, z, -x'
18 '-x+1/2, y, -z'
19 'z, -x, -y+1/2'
20 'y, -z, -x+1/2'
21 'x, -y, -z+1/2'
22 'z+1/2, x+1/2, y+1/2'
23 'y+1/2, z+1/2, x+1/2'
24 'x+1/2, y+1/2, z+1/2'
loop_
_atom_type_symbol
_atom_type_oxidation_number
Nd3+ 3
Sb5+ 5
Li1+ 1
O2- -2
loop_
_atom_site_label
_atom_site_type_symbol
_atom_site_symmetry_multiplicity
_atom_site_Wyckoff_symbol
_atom_site_fract_x
_atom_site_fract_y
_atom_site_fract_z
_atom_site_B_iso_or_equiv
_atom_site_occupancy
Nd1 Nd3+ 12 b 0.124(2) 0 0.25 . 1.
Nd2 Nd3+ 12 b 0.622(9) 0 0.25 . 1.
Sb1 Sb5+ 8 a 0 0 0 . 1.
Sb2 Sb5+ 8 a 0.25 0.25 0.25 . 1.
Li1 Li1+ 24 c 0.603(6) 0.307(4) 0.533(1) . 0.8333
Li2 Li1+ 24 c 0.454(9) 0.382(5) 0.696(7) . 0.8333
O1 O2- 24 c 0.263 0.094(8) 0.204(5) . 1.
O2 O2- 24 c 0.234(4) 0.396(4) 0.332(9) . 1.
O3 O2- 24 c 0.378(6) 0.544(2) 0.453(6) . 1.
O4 O2- 24 c 0.663(2) 0.438(7) 0.529(2) . 1.
#End of TTdata_71213-ICSD
#
