(C) 2022 by FIZ Karlsruhe - Leibniz Institute for Information Infrastructure.  All rights reserved.
data_421210-ICSD
_database_code_ICSD 421210
_audit_creation_date 2010-08-01
_audit_update_record 2012-02-01
_chemical_name_common 'Hexalithium tetraselenophosphate(V) selenide iodide - HT'
_chemical_formula_structural 'Li6 (P Se4) (Se1.23 I0.77)'
_chemical_formula_sum 'I0.77 Li6 P1 Se5.23'
_chemical_name_structure_type Argyrodite(defect)-frame
_exptl_crystal_density_diffrn 3.31
_diffrn_ambient_temperature 293.
_citation_title

;
Lithium argyrodites with phosphorus and arsenic: Order and disorder of lithium
atoms, crystal chemistry, and phase transitions
;
loop_
_citation_id
_citation_journal_full
_citation_year
_citation_journal_volume
_citation_page_first
_citation_page_last
_citation_journal_id_ASTM
primary 'Chemistry - A European Journal' 2010 16 2198 2206 CEUJED
loop_
_citation_author_citation_id
_citation_author_name
primary 'Kong Shiaotong'
primary 'Deiseroth, H.J.'
primary 'Reiner, C.'
primary 'Guen, O.'
primary 'Neumann, E.'
primary 'Ritter, C.'
primary 'Zahn, D.'
_cell_length_a 10.5400(10)
_cell_length_b 10.5400(10)
_cell_length_c 10.5400(10)
_cell_angle_alpha 90.
_cell_angle_beta 90.
_cell_angle_gamma 90.
_cell_volume 1170.91
_cell_formula_units_Z 4
_space_group_name_H-M_alt 'F -4 3 m'
_space_group_IT_number 216
loop_
_space_group_symop_id
_space_group_symop_operation_xyz
1 '-z, -y, x'
2 '-y, -x, z'
3 '-x, -z, y'
4 '-z, -x, y'
5 '-y, -z, x'
6 '-x, -y, z'
7 '-z, y, -x'
8 '-y, x, -z'
9 '-x, z, -y'
10 '-z, x, -y'
11 '-y, z, -x'
12 '-x, y, -z'
13 'z, -y, -x'
14 'y, -x, -z'
15 'x, -z, -y'
16 'z, -x, -y'
17 'y, -z, -x'
18 'x, -y, -z'
19 'z, y, x'
20 'y, x, z'
21 'x, z, y'
22 'z, x, y'
23 'y, z, x'
24 'x, y, z'
25 '-z, -y+1/2, x+1/2'
26 '-y, -x+1/2, z+1/2'
27 '-x, -z+1/2, y+1/2'
28 '-z, -x+1/2, y+1/2'
29 '-y, -z+1/2, x+1/2'
30 '-x, -y+1/2, z+1/2'
31 '-z, y+1/2, -x+1/2'
32 '-y, x+1/2, -z+1/2'
33 '-x, z+1/2, -y+1/2'
34 '-z, x+1/2, -y+1/2'
35 '-y, z+1/2, -x+1/2'
36 '-x, y+1/2, -z+1/2'
37 'z, -y+1/2, -x+1/2'
38 'y, -x+1/2, -z+1/2'
39 'x, -z+1/2, -y+1/2'
40 'z, -x+1/2, -y+1/2'
41 'y, -z+1/2, -x+1/2'
42 'x, -y+1/2, -z+1/2'
43 'z, y+1/2, x+1/2'
44 'y, x+1/2, z+1/2'
45 'x, z+1/2, y+1/2'
46 'z, x+1/2, y+1/2'
47 'y, z+1/2, x+1/2'
48 'x, y+1/2, z+1/2'
49 '-z+1/2, -y, x+1/2'
50 '-y+1/2, -x, z+1/2'
51 '-x+1/2, -z, y+1/2'
52 '-z+1/2, -x, y+1/2'
53 '-y+1/2, -z, x+1/2'
54 '-x+1/2, -y, z+1/2'
55 '-z+1/2, y, -x+1/2'
56 '-y+1/2, x, -z+1/2'
57 '-x+1/2, z, -y+1/2'
58 '-z+1/2, x, -y+1/2'
59 '-y+1/2, z, -x+1/2'
60 '-x+1/2, y, -z+1/2'
61 'z+1/2, -y, -x+1/2'
62 'y+1/2, -x, -z+1/2'
63 'x+1/2, -z, -y+1/2'
64 'z+1/2, -x, -y+1/2'
65 'y+1/2, -z, -x+1/2'
66 'x+1/2, -y, -z+1/2'
67 'z+1/2, y, x+1/2'
68 'y+1/2, x, z+1/2'
69 'x+1/2, z, y+1/2'
70 'z+1/2, x, y+1/2'
71 'y+1/2, z, x+1/2'
72 'x+1/2, y, z+1/2'
73 '-z+1/2, -y+1/2, x'
74 '-y+1/2, -x+1/2, z'
75 '-x+1/2, -z+1/2, y'
76 '-z+1/2, -x+1/2, y'
77 '-y+1/2, -z+1/2, x'
78 '-x+1/2, -y+1/2, z'
79 '-z+1/2, y+1/2, -x'
80 '-y+1/2, x+1/2, -z'
81 '-x+1/2, z+1/2, -y'
82 '-z+1/2, x+1/2, -y'
83 '-y+1/2, z+1/2, -x'
84 '-x+1/2, y+1/2, -z'
85 'z+1/2, -y+1/2, -x'
86 'y+1/2, -x+1/2, -z'
87 'x+1/2, -z+1/2, -y'
88 'z+1/2, -x+1/2, -y'
89 'y+1/2, -z+1/2, -x'
90 'x+1/2, -y+1/2, -z'
91 'z+1/2, y+1/2, x'
92 'y+1/2, x+1/2, z'
93 'x+1/2, z+1/2, y'
94 'z+1/2, x+1/2, y'
95 'y+1/2, z+1/2, x'
96 'x+1/2, y+1/2, z'
loop_
_atom_type_symbol
_atom_type_oxidation_number
Li1+ 1
P5+ 5
Se2- -2
Se1- -1
I1- -1
Li1+ 1
loop_
_atom_site_label
_atom_site_type_symbol
_atom_site_symmetry_multiplicity
_atom_site_Wyckoff_symbol
_atom_site_fract_x
_atom_site_fract_y
_atom_site_fract_z
_atom_site_U_iso_or_equiv
_atom_site_occupancy
Li1 Li1+ 48 h 0.2973(11) 0.0222(17) 0.7027(11) 0.061(5) 0.366(19)
Li2 Li1+ 24 g 0.25 0.014(5) 0.75 0.048(14) 0.14(3)
P1 P5+ 4 b 0.5 0.5 0.5 0.0190(3) 1
Se1 Se2- 16 e 0.12069(2) -0.12069(2) 0.62069(2) 0.02997(7) 1
Se2 Se2- 4 d 0.75 0.75 0.75 0.02548(13) 1
Se3 Se1- 4 a 0. 0. 0. 0.03586(13) 0.229(5)
I1 I1- 4 a 0. 0. 0. 0.03586(13) 0.770(5)
loop_
_atom_site_aniso_label
_atom_site_aniso_type_symbol
_atom_site_aniso_U_11
_atom_site_aniso_U_22
_atom_site_aniso_U_33
_atom_site_aniso_U_12
_atom_site_aniso_U_13
_atom_site_aniso_U_23
P1 P5+ 0.0190(3) 0.0190(3) 0.0190(3) 0. 0. 0.
Se1 Se2- 0.02997(7) 0.02997(7) 0.02997(7) 0.00597(8) -0.00597(8) 0.00597(8)
Se2 Se2- 0.02548(13) 0.02548(13) 0.02548(13) 0. 0. 0.
Se3 Se1- 0.03586(13) 0.03586(13) 0.03586(13) 0. 0. 0.
I1 I1- 0.03586(13) 0.03586(13) 0.03586(13) 0. 0. 0.
#End of TTdata_421210-ICSD
#
