(C) 2022 by FIZ Karlsruhe - Leibniz Institute for Information Infrastructure.  All rights reserved.
data_182034-ICSD
_database_code_ICSD 182034
_audit_creation_date 2012-02-01
_chemical_name_common 'Heptalithium trilanthanum ditin dodecaoxide'
_chemical_formula_structural 'Li7 La3 Sn2 O12'
_chemical_formula_sum 'La3 Li7 O12 Sn2'
_chemical_name_structure_type Garnet#Li7La3Zr2O12(tet)
_exptl_crystal_density_diffrn 5.42
_diffrn_ambient_temperature 293.
_citation_title

;
Instability of the lithium garnet Li7 La3 Sn2 O12: Li(+)/H(+) exchange and
structural study
;
loop_
_citation_id
_citation_journal_full
_citation_year
_citation_journal_volume
_citation_page_first
_citation_page_last
_citation_journal_id_ASTM
primary 'Chemistry of Materials' 2011 23 1892 1900 CMATEX
loop_
_citation_author_citation_id
_citation_author_name
primary 'Galven, C.'
primary 'Fourquet, J.L.'
primary 'Crosnier-Lopez, M.P.'
primary 'le Berre, F.'
_cell_length_a 13.182(1)
_cell_length_b 13.182(1)
_cell_length_c 12.608(2)
_cell_angle_alpha 90.
_cell_angle_beta 90.
_cell_angle_gamma 90.
_cell_volume 2190.83
_cell_formula_units_Z 8
_space_group_name_H-M_alt 'I 41/a c d Z'
_space_group_IT_number 142
loop_
_space_group_symop_id
_space_group_symop_operation_xyz
1 'y+1/4, x+3/4, -z+3/4'
2 '-y+3/4, x+3/4, -z+1/4'
3 'x, y+1/2, -z'
4 '-x, y+1/2, -z+1/2'
5 '-y+3/4, -x+1/4, z+1/4'
6 'y+1/4, -x+1/4, z+3/4'
7 '-x, -y+1/2, z'
8 'x, -y+1/2, z+1/2'
9 'y+1/4, -x+3/4, -z+1/4'
10 '-y+3/4, -x+3/4, -z+3/4'
11 'x, -y, -z+1/2'
12 '-x, -y, -z'
13 '-y+3/4, x+1/4, z+3/4'
14 'y+1/4, x+1/4, z+1/4'
15 '-x, y, z+1/2'
16 'x, y, z'
17 'y+3/4, x+1/4, -z+1/4'
18 '-y+1/4, x+1/4, -z+3/4'
19 'x+1/2, y, -z+1/2'
20 '-x+1/2, y, -z'
21 '-y+1/4, -x+3/4, z+3/4'
22 'y+3/4, -x+3/4, z+1/4'
23 '-x+1/2, -y, z+1/2'
24 'x+1/2, -y, z'
25 'y+3/4, -x+1/4, -z+3/4'
26 '-y+1/4, -x+1/4, -z+1/4'
27 'x+1/2, -y+1/2, -z'
28 '-x+1/2, -y+1/2, -z+1/2'
29 '-y+1/4, x+3/4, z+1/4'
30 'y+3/4, x+3/4, z+3/4'
31 '-x+1/2, y+1/2, z'
32 'x+1/2, y+1/2, z+1/2'
loop_
_atom_type_symbol
_atom_type_oxidation_number
La3+ 3
Sn4+ 4
Li1+ 1
O2- -2
loop_
_atom_site_label
_atom_site_type_symbol
_atom_site_symmetry_multiplicity
_atom_site_Wyckoff_symbol
_atom_site_fract_x
_atom_site_fract_y
_atom_site_fract_z
_atom_site_B_iso_or_equiv
_atom_site_occupancy
La1 La3+ 16 e 0.12669(5) 0 0.25 0.48(1) 1.
La2 La3+ 8 b 0 0.25 0.125 0.49(1) 1.
Sn1 Sn4+ 16 c 0 0 0 0.41(1) 1.
Li1 Li1+ 8 a 0 0.25 0.375 1.7(2) 1.
Li2 Li1+ 32 g 0.163(2) 0.832(2) 0.058(2) 1.7(2) 1.
Li3 Li1+ 16 f 0.178(2) 0.428(2) 0.125 1.7(2) 1.
O1 O2- 32 g 0.2772(4) 0.1016(4) 0.1996(4) 0.44(7) 1.
O2 O2- 32 g 0.1956(4) 0.2835(4) 0.0977(4) 0.52(7) 1.
O3 O2- 32 g 0.1043(4) 0.1984(4) 0.2850(4) 0.44(7) 1.
loop_
_atom_site_aniso_label
_atom_site_aniso_type_symbol
_atom_site_aniso_beta_11
_atom_site_aniso_beta_22
_atom_site_aniso_beta_33
_atom_site_aniso_beta_12
_atom_site_aniso_beta_13
_atom_site_aniso_beta_23
La1 La3+ 0.0065(2) 0.0052(2) 0.0067(3) 0. 0. 0.0012(2)
La2 La3+ 0.0060(2) 0.0060(2) 0.0068(3) 0. 0. 0.0005(3)
Sn1 Sn4+ 0.0047(3) 0.0050(3) 0.0058(3) 0.0004(20) 0.0022(21) -0.0012(21)
#End of TTdata_182034-ICSD
#
