(C) 2022 by FIZ Karlsruhe - Leibniz Institute for Information Infrastructure.  All rights reserved.
data_253056-ICSD
_database_code_ICSD 253056
_audit_creation_date 2017-08-01
_audit_update_record 2018-02-01
_chemical_name_common 'Lithium lanthanum hafnium oxide (7/3/2/12)'
_chemical_formula_structural 'Li7 La3 Hf2 O12'
_chemical_formula_sum 'Hf2 La3 Li7 O12'
_chemical_name_structure_type Garnet#Li7La3Zr2O12(tet)
_exptl_crystal_density_diffrn 6.2
_diffrn_ambient_temperature 293.
_citation_title

;
Crystal structure and spectroscopic properties of garnet-type Li7 La3 Hf2
O12:Eu3+
;
loop_
_citation_id
_citation_journal_full
_citation_year
_citation_journal_volume
_citation_page_first
_citation_page_last
_citation_journal_id_ASTM
primary 'Journal of Alloys and Compounds' 2016 686 204 215 JALCEU
loop_
_citation_author_citation_id
_citation_author_name
primary 'Leonidov, Ivan I.'
primary 'Baklanova, Yana V.'
primary 'Maksimova, Lidiya G.'
primary 'Tyutyunnik, Alexander P.'
primary 'Akashev, Lev A.'
primary 'Vovkotrub, Emma G.'
primary 'Denisova, Tatyana A.'
primary 'Zubkov, Vladimir G.'
_cell_length_a 13.11467(7)
_cell_length_b 13.11467(7)
_cell_length_c 12.63998(9)
_cell_angle_alpha 90.
_cell_angle_beta 90.
_cell_angle_gamma 90.
_cell_volume 2174.02
_cell_formula_units_Z 8
_space_group_name_H-M_alt 'I 41/a c d Z'
_space_group_IT_number 142
loop_
_space_group_symop_id
_space_group_symop_operation_xyz
1 'y+1/4, x+3/4, -z+3/4'
2 '-y+3/4, x+3/4, -z+1/4'
3 'x, y+1/2, -z'
4 '-x, y+1/2, -z+1/2'
5 '-y+3/4, -x+1/4, z+1/4'
6 'y+1/4, -x+1/4, z+3/4'
7 '-x, -y+1/2, z'
8 'x, -y+1/2, z+1/2'
9 'y+1/4, -x+3/4, -z+1/4'
10 '-y+3/4, -x+3/4, -z+3/4'
11 'x, -y, -z+1/2'
12 '-x, -y, -z'
13 '-y+3/4, x+1/4, z+3/4'
14 'y+1/4, x+1/4, z+1/4'
15 '-x, y, z+1/2'
16 'x, y, z'
17 'y+3/4, x+1/4, -z+1/4'
18 '-y+1/4, x+1/4, -z+3/4'
19 'x+1/2, y, -z+1/2'
20 '-x+1/2, y, -z'
21 '-y+1/4, -x+3/4, z+3/4'
22 'y+3/4, -x+3/4, z+1/4'
23 '-x+1/2, -y, z+1/2'
24 'x+1/2, -y, z'
25 'y+3/4, -x+1/4, -z+3/4'
26 '-y+1/4, -x+1/4, -z+1/4'
27 'x+1/2, -y+1/2, -z'
28 '-x+1/2, -y+1/2, -z+1/2'
29 '-y+1/4, x+3/4, z+1/4'
30 'y+3/4, x+3/4, z+3/4'
31 '-x+1/2, y+1/2, z'
32 'x+1/2, y+1/2, z+1/2'
loop_
_atom_type_symbol
_atom_type_oxidation_number
Li1+ 1
La3+ 3
Hf4+ 4
O2- -2
loop_
_atom_site_label
_atom_site_type_symbol
_atom_site_symmetry_multiplicity
_atom_site_Wyckoff_symbol
_atom_site_fract_x
_atom_site_fract_y
_atom_site_fract_z
_atom_site_U_iso_or_equiv
_atom_site_occupancy
Li1 Li1+ 8 a 0 0.25 0.375 0.0215(17) 1.
Li2 Li1+ 16 f 0.8227 0.0727 0.125 0.0215(17) 1.
Li3 Li1+ 32 g 0.0802 0.0856 0.8054 0.0215(17) 1.
La1 La3+ 8 b 0 0.25 0.125 0.0235(11) 1.
La2 La3+ 16 e 0.62724(12) 0 0.25 0.0239(10) 1.
Hf1 Hf4+ 16 c 0 0 0 0.0249(10) 1.
O1 O2- 32 g -0.0333(6) 0.0553(6) 0.1520(6) 0.0215(17) 1.
O2 O2- 32 g 0.0549(6) 0.8531(6) 0.5351(5) 0.0215(17) 1.
O3 O2- 32 g 0.1504(6) 0.0292(6) 0.4449(6) 0.0215(17) 1.
#End of TTdata_253056-ICSD
#
