(C) 2022 by FIZ Karlsruhe - Leibniz Institute for Information Infrastructure.  All rights reserved.
data_14991-ICSD
_database_code_ICSD 14991
_audit_creation_date 2021-02-01
_chemical_name_common 'Heptalithium trilanthanum dizirconium dodecaoxide'
_chemical_formula_structural 'Li7 La3 Zr2 O12'
_chemical_formula_sum 'La3 Li7 O12 Zr2'
_chemical_name_structure_type Garnet#Li7La3Zr2O12(tet)
_exptl_crystal_density_diffrn 5.12
_citation_title

;
Combined experimental and computational study of Ce-doped
La$_3$Zr$_2$Li$_7$O$_{12}$ garnet solid-state electrolyte
;
loop_
_citation_id
_citation_journal_full
_citation_year
_citation_journal_volume
_citation_page_first
_citation_page_last
_citation_journal_id_ASTM
primary 'Chemistry of Materials' 2020 32 215 223 CMATEX
loop_
_citation_author_citation_id
_citation_author_name
primary 'Dong, Bo'
primary 'Yeandel, Stephen R.'
primary 'Goddard, Pooja'
primary 'Slater, Peter R.'
_cell_length_a 13.1163(1)
_cell_length_b 13.1163(1)
_cell_length_c 12.6644(2)
_cell_angle_alpha 90.
_cell_angle_beta 90.
_cell_angle_gamma 90.
_cell_volume 2178.75
_cell_formula_units_Z 8
_space_group_name_H-M_alt 'I 41/a c d Z'
_space_group_IT_number 142
loop_
_space_group_symop_id
_space_group_symop_operation_xyz
1 'y+1/4, x+3/4, -z+3/4'
2 '-y+3/4, x+3/4, -z+1/4'
3 'x, y+1/2, -z'
4 '-x, y+1/2, -z+1/2'
5 '-y+3/4, -x+1/4, z+1/4'
6 'y+1/4, -x+1/4, z+3/4'
7 '-x, -y+1/2, z'
8 'x, -y+1/2, z+1/2'
9 'y+1/4, -x+3/4, -z+1/4'
10 '-y+3/4, -x+3/4, -z+3/4'
11 'x, -y, -z+1/2'
12 '-x, -y, -z'
13 '-y+3/4, x+1/4, z+3/4'
14 'y+1/4, x+1/4, z+1/4'
15 '-x, y, z+1/2'
16 'x, y, z'
17 'y+3/4, x+1/4, -z+1/4'
18 '-y+1/4, x+1/4, -z+3/4'
19 'x+1/2, y, -z+1/2'
20 '-x+1/2, y, -z'
21 '-y+1/4, -x+3/4, z+3/4'
22 'y+3/4, -x+3/4, z+1/4'
23 '-x+1/2, -y, z+1/2'
24 'x+1/2, -y, z'
25 'y+3/4, -x+1/4, -z+3/4'
26 '-y+1/4, -x+1/4, -z+1/4'
27 'x+1/2, -y+1/2, -z'
28 '-x+1/2, -y+1/2, -z+1/2'
29 '-y+1/4, x+3/4, z+1/4'
30 'y+3/4, x+3/4, z+3/4'
31 '-x+1/2, y+1/2, z'
32 'x+1/2, y+1/2, z+1/2'
loop_
_atom_type_symbol
_atom_type_oxidation_number
La3+ 3
Zr4+ 4
O2- -2
Li1+ 1
loop_
_atom_site_label
_atom_site_type_symbol
_atom_site_symmetry_multiplicity
_atom_site_Wyckoff_symbol
_atom_site_fract_x
_atom_site_fract_y
_atom_site_fract_z
_atom_site_U_iso_or_equiv
_atom_site_occupancy
La1 La3+ 8 b 0 0.25 0.125 0.002(1) 1.
La2 La3+ 16 e 0.1271(3) 0 0.25 0.001(1) 1.
Zr1 Zr4+ 16 c 0 0 0 0.001(1) 1.
O1 O2- 32 g -0.0379(10) 0.0546(10) 0.1521(11) 0.008(3) 1.
O2 O2- 32 g 0.0540(10) 0.8503(11) 0.5379(8) 0.008(3) 1.
O3 O2- 32 g 0.1480(11) 0.0338(10) 0.4416(9) 0.008(3) 1.
Li1 Li1+ 8 a 0 0.25 0.375 0.025 1.
Li2 Li1+ 16 f 0.1774 0.4274 0.125 0.025 1.
Li3 Li1+ 32 g 0.08 0.087 0.8049 0.025 1.
#End of TTdata_14991-ICSD
#
