(C) 2022 by FIZ Karlsruhe - Leibniz Institute for Information Infrastructure.  All rights reserved.
data_246816-ICSD
_database_code_ICSD 246816
_audit_creation_date 2010-02-01
_chemical_name_common 'Lithium lanthanum zirconium oxide (7/3/2/12)'
_chemical_formula_structural 'Li7 La3 Zr2 O12'
_chemical_formula_sum 'La3 Li7 O12 Zr2'
_chemical_name_structure_type Garnet#Li7La3Zr2O12(tet)
_exptl_crystal_density_diffrn 5.11
_citation_title

;
Synthesis and structure analysis of tetragonal Li7 La3 Zr2 O12 with the
garnet-related type structure
;
loop_
_citation_id
_citation_journal_full
_citation_year
_citation_journal_volume
_citation_page_first
_citation_page_last
_citation_journal_id_ASTM
primary 'Journal of Solid State Chemistry' 2009 182 2046 2052 JSSCBI
loop_
_citation_author_citation_id
_citation_author_name
primary 'Awaka, J.'
primary 'Kijima, N.'
primary 'Hayakawa, H.'
primary 'Akimoto, J.'
_cell_length_a 13.134(4)
_cell_length_b 13.134(4)
_cell_length_c 12.663(8)
_cell_angle_alpha 90.
_cell_angle_beta 90.
_cell_angle_gamma 90.
_cell_volume 2184.39
_cell_formula_units_Z 8
_space_group_name_H-M_alt 'I 41/a c d Z'
_space_group_IT_number 142
loop_
_space_group_symop_id
_space_group_symop_operation_xyz
1 'y+1/4, x+3/4, -z+3/4'
2 '-y+3/4, x+3/4, -z+1/4'
3 'x, y+1/2, -z'
4 '-x, y+1/2, -z+1/2'
5 '-y+3/4, -x+1/4, z+1/4'
6 'y+1/4, -x+1/4, z+3/4'
7 '-x, -y+1/2, z'
8 'x, -y+1/2, z+1/2'
9 'y+1/4, -x+3/4, -z+1/4'
10 '-y+3/4, -x+3/4, -z+3/4'
11 'x, -y, -z+1/2'
12 '-x, -y, -z'
13 '-y+3/4, x+1/4, z+3/4'
14 'y+1/4, x+1/4, z+1/4'
15 '-x, y, z+1/2'
16 'x, y, z'
17 'y+3/4, x+1/4, -z+1/4'
18 '-y+1/4, x+1/4, -z+3/4'
19 'x+1/2, y, -z+1/2'
20 '-x+1/2, y, -z'
21 '-y+1/4, -x+3/4, z+3/4'
22 'y+3/4, -x+3/4, z+1/4'
23 '-x+1/2, -y, z+1/2'
24 'x+1/2, -y, z'
25 'y+3/4, -x+1/4, -z+3/4'
26 '-y+1/4, -x+1/4, -z+1/4'
27 'x+1/2, -y+1/2, -z'
28 '-x+1/2, -y+1/2, -z+1/2'
29 '-y+1/4, x+3/4, z+1/4'
30 'y+3/4, x+3/4, z+3/4'
31 '-x+1/2, y+1/2, z'
32 'x+1/2, y+1/2, z+1/2'
loop_
_atom_type_symbol
_atom_type_oxidation_number
La3+ 3
Zr4+ 4
Li1+ 1
O2- -2
loop_
_atom_site_label
_atom_site_type_symbol
_atom_site_symmetry_multiplicity
_atom_site_Wyckoff_symbol
_atom_site_fract_x
_atom_site_fract_y
_atom_site_fract_z
_atom_site_U_iso_or_equiv
_atom_site_occupancy
La1 La3+ 8 b 0 0.25 0.125 0.0059(2) 1.
La2 La3+ 16 e 0.12716(5) 0 0.25 0.0057(2) 1.
Zr1 Zr4+ 16 c 0 0 0 0.0050(3) 1.
Li1 Li1+ 8 a 0 0.25 0.375 0.05(2) 1.
Li2 Li1+ 16 f 0.1813(13) 0.4313(13) 0.125 0.035(10) 1.
Li3 Li1+ 32 g 0.0796(12) 0.0863(11) 0.8099(12) 0.021(8) 1.
O1 O2- 32 g -0.0335(3) 0.0546(3) 0.1528(3) 0.007(2) 1.
O2 O2- 32 g 0.0534(3) 0.8525(3) 0.5366(4) 0.008(2) 1.
O3 O2- 32 g 0.1499(3) 0.0273(3) 0.4454(3) 0.007(2) 1.
loop_
_atom_site_aniso_label
_atom_site_aniso_type_symbol
_atom_site_aniso_U_11
_atom_site_aniso_U_22
_atom_site_aniso_U_33
_atom_site_aniso_U_12
_atom_site_aniso_U_13
_atom_site_aniso_U_23
La1 La3+ 0.00535(14) 0.00535(14) 0.0070(2) 0.0003(2) 0. 0.
La2 La3+ 0.0047(2) 0.0057(2) 0.0067(2) 0. 0. 0.0009(2)
Zr1 Zr4+ 0.0042(3) 0.0041(3) 0.0067(3) 0.0003(2) -0.0003(3) -0.0002(3)
Li1 Li1+ 0.027(11) 0.027(11) 0.08(3) 0. 0. 0.
Li2 Li1+ 0.031(8) 0.031(8) 0.042(14) -0.001(11) 0.012(10) -0.012(10)
Li3 Li1+ 0.018(8) 0.030(9) 0.016(7) -0.008(6) -0.010(6) 0.005(7)
O1 O2- 0.005(2) 0.009(2) 0.006(2) 0.0014(14) -0.0013(14) -0.001(2)
O2 O2- 0.011(2) 0.004(2) 0.010(2) -0.0004(14) -0.001(2) 0.000(2)
O3 O2- 0.007(2) 0.005(2) 0.008(2) 0.0001(13) -0.001(2) 0.002(2)
#End of TTdata_246816-ICSD
#
