(C) 2022 by FIZ Karlsruhe - Leibniz Institute for Information Infrastructure.  All rights reserved.
data_430603-ICSD
_database_code_ICSD 430603
_audit_creation_date 2016-08-01
_chemical_name_common
'Lithium gallium lanthanum zirconium oxide (6.49/0.2/2.94/2/12)'
_chemical_formula_structural 'Li6.49 Ga0.20 La2.94 Zr2 O12'
_chemical_formula_sum 'Ga0.2 La2.94 Li6.49 O12 Zr2'
_exptl_crystal_density_diffrn 5.12
_diffrn_ambient_temperature 298.
_citation_title

;
Crystal structure of garnet-related Li-ion conductor Li7-3x Gax La3 Zr2 O12:
fast Li-ion conduction caused by a different cubic modification?
;
loop_
_citation_id
_citation_journal_full
_citation_year
_citation_journal_volume
_citation_page_first
_citation_page_last
_citation_journal_id_ASTM
primary 'Chemistry of Materials' 2016 28 1861 1871 CMATEX
loop_
_citation_author_citation_id
_citation_author_name
primary 'Wagner, Reinhard'
primary 'Redhammer, Guenther J.'
primary 'Rettenwander, Daniel'
primary 'Senyshyn, Anatoliy'
primary 'Schmidt, Walter'
primary 'Wilkening, Martin'
primary 'Amthauer, Georg'
_cell_length_a 12.97360(10)
_cell_length_b 12.97360(10)
_cell_length_c 12.97360(10)
_cell_angle_alpha 90
_cell_angle_beta 90
_cell_angle_gamma 90
_cell_volume 2183.64
_cell_formula_units_Z 8
_space_group_name_H-M_alt 'I -4 3 d'
_space_group_IT_number 220
loop_
_space_group_symop_id
_space_group_symop_operation_xyz
1 '-y+1/4, -x+3/4, z+3/4'
2 'y+3/4, -x+1/4, -z+3/4'
3 '-y+3/4, x+3/4, -z+1/4'
4 'y+1/4, x+1/4, z+1/4'
5 'z+1/2, -x+1/2, -y'
6 '-z+1/2, -x, y+1/2'
7 '-z, x+1/2, -y+1/2'
8 'z, x, y'
9 'z+3/4, -y+1/4, -x+3/4'
10 '-z+3/4, y+3/4, -x+1/4'
11 '-z+1/4, -y+3/4, x+3/4'
12 'z+1/4, y+1/4, x+1/4'
13 '-y, z+1/2, -x+1/2'
14 'y+1/2, -z+1/2, -x'
15 '-y+1/2, -z, x+1/2'
16 'y, z, x'
17 '-x+3/4, z+3/4, -y+1/4'
18 '-x+1/4, -z+3/4, y+3/4'
19 'x+3/4, -z+1/4, -y+3/4'
20 'x+1/4, z+1/4, y+1/4'
21 '-x+1/2, -y, z+1/2'
22 '-x, y+1/2, -z+1/2'
23 'x+1/2, -y+1/2, -z'
24 'x, y, z'
25 '-y+3/4, -x+1/4, z+1/4'
26 'y+1/4, -x+3/4, -z+1/4'
27 '-y+1/4, x+1/4, -z+3/4'
28 'y+3/4, x+3/4, z+3/4'
29 'z, -x, -y+1/2'
30 '-z, -x+1/2, y'
31 '-z+1/2, x, -y'
32 'z+1/2, x+1/2, y+1/2'
33 'z+1/4, -y+3/4, -x+1/4'
34 '-z+1/4, y+1/4, -x+3/4'
35 '-z+3/4, -y+1/4, x+1/4'
36 'z+3/4, y+3/4, x+3/4'
37 '-y+1/2, z, -x'
38 'y, -z, -x+1/2'
39 '-y, -z+1/2, x'
40 'y+1/2, z+1/2, x+1/2'
41 '-x+1/4, z+1/4, -y+3/4'
42 '-x+3/4, -z+1/4, y+1/4'
43 'x+1/4, -z+3/4, -y+1/4'
44 'x+3/4, z+3/4, y+3/4'
45 '-x, -y+1/2, z'
46 '-x+1/2, y, -z'
47 'x, -y, -z+1/2'
48 'x+1/2, y+1/2, z+1/2'
loop_
_atom_type_symbol
_atom_type_oxidation_number
La3+ 3
Zr4+ 4
O2- -2
Li1+ 1
Ga3+ 3
Li1+ 1
loop_
_atom_site_label
_atom_site_type_symbol
_atom_site_symmetry_multiplicity
_atom_site_Wyckoff_symbol
_atom_site_fract_x
_atom_site_fract_y
_atom_site_fract_z
_atom_site_U_iso_or_equiv
_atom_site_occupancy
La1 La3+ 24 d 0.11986(2) 0 0.25 0.00600(7) 0.979(3)
Zr1 Zr4+ 16 c 0.00002(3) 0.00002(3) 0.00002(3) 0.00494(12) 1
O1 O2- 48 e 0.0976(2) 0.1965(2) 0.2799(2) 0.0087(5) 1
O2 O2- 48 e 0.0333(2) 0.4450(2) 0.1474(2) 0.0105(5) 1
Li1 Li1+ 12 a 0.375 0 0.25 0.0047(8) 0.864(3)
Ga1 Ga3+ 12 a 0.375 0 0.25 0.0047(8) 0.136(3)
Li2 Li1+ 12 b 0.875 0 0.25 0.029(6) 0.96(10)
Li3 Li1+ 48 e 0.0967(9) 0.1866(9) 0.4260(8) 0.015(3) 0.63(4)
loop_
_atom_site_aniso_label
_atom_site_aniso_type_symbol
_atom_site_aniso_U_11
_atom_site_aniso_U_22
_atom_site_aniso_U_33
_atom_site_aniso_U_12
_atom_site_aniso_U_13
_atom_site_aniso_U_23
La1 La3+ 0.00611(11) 0.00596(12) 0.00593(12) 0 0 0.00078(7)
Zr1 Zr4+ 0.00494(12) 0.00494(12) 0.00494(12) 0.00011(8) 0.00011(8) 0.00011(8)
O1 O2- 0.0075(10) 0.0104(11) 0.0082(10) -0.0007(8) 0.0005(8) -0.0005(8)
O2 O2- 0.0140(11) 0.0107(11) 0.0070(10) 0.0012(9) -0.0007(8) 0.0014(8)
Li1 Li1+ 0.0058(14) 0.0041(10) 0.0041(10) 0 0 0
Ga1 Ga3+ 0.0058(14) 0.0041(10) 0.0041(10) 0 0 0
Li2 Li1+ 0.020(9) 0.034(8) 0.034(8) 0 0 0
Li3 Li1+ 0.019(6) 0.018(6) 0.008(5) -0.003(4) 0.002(4) 0.001(4)
#End of TTdata_430603-ICSD
#
