(C) 2022 by FIZ Karlsruhe - Leibniz Institute for Information Infrastructure.  All rights reserved.
data_174202-ICSD
_database_code_ICSD 174202
_audit_creation_date 2010-08-01
_chemical_name_common 'Heptalithium trilanthanum dihafnium dodecaoxide'
_chemical_formula_structural 'Li7 La3 Hf2 O12'
_chemical_formula_sum 'Hf2 La3 Li7 O12'
_chemical_name_structure_type Garnet#Li7La3Zr2O12(tet)
_exptl_crystal_density_diffrn 6.21
_citation_title

;
Neutron powder diffraction study of tetragonal Li7 La3 Hf2 O12 with the
garnet-related type structure
;
loop_
_citation_id
_citation_journal_full
_citation_year
_citation_journal_volume
_citation_page_first
_citation_page_last
_citation_journal_id_ASTM
primary 'Journal of Solid State Chemistry' 2010 183 180 185 JSSCBI
loop_
_citation_author_citation_id
_citation_author_name
primary 'Awaka, J.'
primary 'Kijima, N.'
primary 'Kataoka, K.'
primary 'Hayakawa, H.'
primary 'Ohshima, K.I.'
primary 'Akimoto, J.'
_cell_length_a 13.1056(18)
_cell_length_b 13.1056(18)
_cell_length_c 12.6303(17)
_cell_angle_alpha 90
_cell_angle_beta 90
_cell_angle_gamma 90
_cell_volume 2169.34
_cell_formula_units_Z 8
_space_group_name_H-M_alt 'I 41/a c d Z'
_space_group_IT_number 142
loop_
_space_group_symop_id
_space_group_symop_operation_xyz
1 'y+1/4, x+3/4, -z+3/4'
2 '-y+3/4, x+3/4, -z+1/4'
3 'x, y+1/2, -z'
4 '-x, y+1/2, -z+1/2'
5 '-y+3/4, -x+1/4, z+1/4'
6 'y+1/4, -x+1/4, z+3/4'
7 '-x, -y+1/2, z'
8 'x, -y+1/2, z+1/2'
9 'y+1/4, -x+3/4, -z+1/4'
10 '-y+3/4, -x+3/4, -z+3/4'
11 'x, -y, -z+1/2'
12 '-x, -y, -z'
13 '-y+3/4, x+1/4, z+3/4'
14 'y+1/4, x+1/4, z+1/4'
15 '-x, y, z+1/2'
16 'x, y, z'
17 'y+3/4, x+1/4, -z+1/4'
18 '-y+1/4, x+1/4, -z+3/4'
19 'x+1/2, y, -z+1/2'
20 '-x+1/2, y, -z'
21 '-y+1/4, -x+3/4, z+3/4'
22 'y+3/4, -x+3/4, z+1/4'
23 '-x+1/2, -y, z+1/2'
24 'x+1/2, -y, z'
25 'y+3/4, -x+1/4, -z+3/4'
26 '-y+1/4, -x+1/4, -z+1/4'
27 'x+1/2, -y+1/2, -z'
28 '-x+1/2, -y+1/2, -z+1/2'
29 '-y+1/4, x+3/4, z+1/4'
30 'y+3/4, x+3/4, z+3/4'
31 '-x+1/2, y+1/2, z'
32 'x+1/2, y+1/2, z+1/2'
loop_
_atom_type_symbol
_atom_type_oxidation_number
Li1+ 1
La3+ 3
Hf4+ 4
O2- -2
loop_
_atom_site_label
_atom_site_type_symbol
_atom_site_symmetry_multiplicity
_atom_site_Wyckoff_symbol
_atom_site_fract_x
_atom_site_fract_y
_atom_site_fract_z
_atom_site_U_iso_or_equiv
_atom_site_occupancy
Li1 Li1+ 8 a 0 0.25 0.375 .007(3) 1.
Li2 Li1+ 16 f 0.17730(73) 0.4273 0.125 .022(3) 1.
Li3 Li1+ 32 g 0.08018(57) 0.0856(6) 0.80448(58) .015(2) 1.
La1 La3+ 8 b 0 0.25 0.125 .0022(8) 1.
La2 La3+ 16 e 0.12703(17) 0 0.25 .0027(6) 1.
Hf1 Hf4+ 16 c 0 0 0 .0016(2) 1.
O1 O2- 32 g -0.03305(17) 0.05456(16) 0.15197(16) .0037(7) 1.
O2 O2- 32 g 0.05369(18) 0.85359(17) 0.53402(17) .0048(7) 1.
O3 O2- 32 g 0.14861(18) 0.02708(18) 0.44712(18) .0037(6) 1.
#End of TTdata_174202-ICSD
#
