(C) 2022 by FIZ Karlsruhe - Leibniz Institute for Information Infrastructure.  All rights reserved.
data_19912-ICSD
_database_code_ICSD 19912
_audit_creation_date 2021-08-01
_chemical_name_common 'Heptalithium trilanthanum dizirconium dodecaoxide'
_chemical_formula_structural 'Li7 La3 Zr2 O12'
_chemical_formula_sum 'La3 Li7 O12 Zr2'
_chemical_name_structure_type Garnet#Li7La3Zr2O12(tet)
_exptl_crystal_density_diffrn 5.11
_diffrn_ambient_temperature 293.
_citation_title

;
Large single-crystal growth of tetragonal garnet-type
Li$_7$La$_3$Zr$_2$O$_{12}$ by melting method
;
loop_
_citation_id
_citation_journal_full
_citation_year
_citation_journal_volume
_citation_page_first
_citation_page_last
_citation_journal_id_ASTM
primary 'Solid State Ionics' 2020 349 '' '' SSIOD3
loop_
_citation_author_citation_id
_citation_author_name
primary 'Kataoka, Kunimitsu'
primary 'Akimoto, Junji'
_cell_length_a 13.1200(7)
_cell_length_b 13.1200(7)
_cell_length_c 12.6753(7)
_cell_angle_alpha 90
_cell_angle_beta 90
_cell_angle_gamma 90
_cell_volume 2181.85
_cell_formula_units_Z 8
_space_group_name_H-M_alt 'I 41/a c d Z'
_space_group_IT_number 142
loop_
_space_group_symop_id
_space_group_symop_operation_xyz
1 'y+1/4, x+3/4, -z+3/4'
2 '-y+3/4, x+3/4, -z+1/4'
3 'x, y+1/2, -z'
4 '-x, y+1/2, -z+1/2'
5 '-y+3/4, -x+1/4, z+1/4'
6 'y+1/4, -x+1/4, z+3/4'
7 '-x, -y+1/2, z'
8 'x, -y+1/2, z+1/2'
9 'y+1/4, -x+3/4, -z+1/4'
10 '-y+3/4, -x+3/4, -z+3/4'
11 'x, -y, -z+1/2'
12 '-x, -y, -z'
13 '-y+3/4, x+1/4, z+3/4'
14 'y+1/4, x+1/4, z+1/4'
15 '-x, y, z+1/2'
16 'x, y, z'
17 'y+3/4, x+1/4, -z+1/4'
18 '-y+1/4, x+1/4, -z+3/4'
19 'x+1/2, y, -z+1/2'
20 '-x+1/2, y, -z'
21 '-y+1/4, -x+3/4, z+3/4'
22 'y+3/4, -x+3/4, z+1/4'
23 '-x+1/2, -y, z+1/2'
24 'x+1/2, -y, z'
25 'y+3/4, -x+1/4, -z+3/4'
26 '-y+1/4, -x+1/4, -z+1/4'
27 'x+1/2, -y+1/2, -z'
28 '-x+1/2, -y+1/2, -z+1/2'
29 '-y+1/4, x+3/4, z+1/4'
30 'y+3/4, x+3/4, z+3/4'
31 '-x+1/2, y+1/2, z'
32 'x+1/2, y+1/2, z+1/2'
loop_
_atom_type_symbol
_atom_type_oxidation_number
Li1+ 1
La3+ 3
Zr4+ 4
O2- -2
loop_
_atom_site_label
_atom_site_type_symbol
_atom_site_symmetry_multiplicity
_atom_site_Wyckoff_symbol
_atom_site_fract_x
_atom_site_fract_y
_atom_site_fract_z
_atom_site_U_iso_or_equiv
_atom_site_occupancy
Li1 Li1+ 8 a 0 0.25 0.375 0.040(6) 1
Li2 Li1+ 16 f 0.1795(8) 0.4295(8) 0.125 0.032(5) 1
Li3 Li1+ 32 g 0.0810(8) 0.0874(9) 0.8062(11) 0.022(3) 1
La1 La3+ 8 b 0 0.25 0.125 0.00569(5) 1
La2 La3+ 16 e 0.12727(3) 0 0.25 0.00541(5) 1
Zr1 Zr4+ 16 c 0 0 0 0.00447(9) 1
O1 O2- 32 g -0.0341(2) 0.0549(2) 0.1526(2) 0.0057(5) 1
O2 O2- 32 g 0.0541(2) 0.8529(2) 0.5339(3) 0.0073(6) 1
O3 O2- 32 g 0.1495(2) 0.0277(2) 0.4466(3) 0.0072(6) 1
loop_
_atom_site_aniso_label
_atom_site_aniso_type_symbol
_atom_site_aniso_U_11
_atom_site_aniso_U_22
_atom_site_aniso_U_33
_atom_site_aniso_U_12
_atom_site_aniso_U_13
_atom_site_aniso_U_23
Li1 Li1+ 0.059(12) 0.059(12) 0.003(7) 0 0 0
Li2 Li1+ 0.011(4) 0.011(4) 0.074(14) 0.000(5) -0.011(7) 0.011(7)
Li3 Li1+ 0.007(4) 0.024(6) 0.035(7) -0.009(4) -0.006(4) 0.009(5)
La1 La3+ 0.00551(7) 0.00551(7) 0.00604(11) 0.00031(11) 0 0
La2 La3+ 0.00461(9) 0.00587(9) 0.00575(8) 0 0 0.00078(8)
Zr1 Zr4+ 0.00436(16) 0.00432(16) 0.00473(16) 0.00026(14) -0.00044(14)
-0.00028(14)
O1 O2- 0.0057(9) 0.0073(9) 0.0043(8) 0.0009(7) -0.0006(7) -0.0007(7)
O2 O2- 0.0119(11) 0.0026(8) 0.0073(10) 0.0007(8) -0.0006(9) 0.0017(7)
O3 O2- 0.0041(9) 0.0055(10) 0.0119(11) 0.0001(7) -0.0006(8) 0.0004(9)
#End of TTdata_19912-ICSD
#
