(C) 2022 by FIZ Karlsruhe - Leibniz Institute for Information Infrastructure.  All rights reserved.
data_252039-ICSD
_database_code_ICSD 252039
_audit_creation_date 2016-02-01
_chemical_name_common 'Decalithium dodecathiostannodiphosphate'
_chemical_formula_structural 'Li9.81 Sn0.81 P2.19 S12'
_chemical_formula_sum 'Li9.81 P2.19 S12 Sn0.81'
_chemical_name_structure_type Li10GeP2S12-frame#LGPS-type
_exptl_crystal_density_diffrn 2.13
_diffrn_ambient_temperature 12.
_citation_title

;
Structure-property relationships in lithium superionic conductors having a
Li10GeP2S12-type structure
;
loop_
_citation_id
_citation_journal_full
_citation_year
_citation_journal_volume
_citation_page_first
_citation_page_last
_citation_journal_id_ASTM
primary

;
Acta Crystallographica, Section B: Structural Science, Crystal Engineering and
Materials
; 2015 71 727 736 ACSBDA
loop_
_citation_author_citation_id
_citation_author_name
primary 'Hori, Satoshi'
primary 'Taminato, Sou'
primary 'Suzuki, Kota'
primary 'Hirayama, Masaaki'
primary 'Kato, Yuki'
primary 'Kanno, Ryoji'
_cell_length_a 8.70054(3)
_cell_length_b 8.70054(3)
_cell_length_c 12.68610(8)
_cell_angle_alpha 90.
_cell_angle_beta 90.
_cell_angle_gamma 90.
_cell_volume 960.32
_cell_formula_units_Z 2
_space_group_name_H-M_alt 'P 42/n m c S'
_space_group_IT_number 137
loop_
_space_group_symop_id
_space_group_symop_operation_xyz
1 '-y+1/2, -x+1/2, z+1/2'
2 'y+1/2, x+1/2, z+1/2'
3 '-y, -x, -z'
4 'y, x, -z'
5 'y+1/2, -x+1/2, z+1/2'
6 '-y+1/2, x+1/2, z+1/2'
7 'y, -x, -z'
8 '-y, x, -z'
9 'x+1/2, -y+1/2, -z+1/2'
10 '-x+1/2, y+1/2, -z+1/2'
11 'x, -y, z'
12 '-x, y, z'
13 '-x+1/2, -y+1/2, -z+1/2'
14 'x+1/2, y+1/2, -z+1/2'
15 '-x, -y, z'
16 'x, y, z'
loop_
_atom_type_symbol
_atom_type_oxidation_number
Li1+ 1
Sn4+ 4
P5+ 5
S2- -2
loop_
_atom_site_label
_atom_site_type_symbol
_atom_site_symmetry_multiplicity
_atom_site_Wyckoff_symbol
_atom_site_fract_x
_atom_site_fract_y
_atom_site_fract_z
_atom_site_B_iso_or_equiv
_atom_site_occupancy
Li1 Li1+ 16 h 0.2551(5) 0.2718(4) 0.1817(4) 6.5(3) 0.486(6)
Li2 Li1+ 4 d 0 0.5 -0.0607(6) 8.3(3) 0.781(8)
Li3 Li1+ 8 f 0.2408(4) 0.2408(4) 0 14.2(5) 0.717(13)
Li4 Li1+ 4 c 0 0 0.2458(4) 4.1(2) 0.744(9)
Sn1 Sn4+ 4 d 0 0.5 0.68727(10) 1.92(3) 0.405
P1 P5+ 4 d 0 0.5 0.68727(10) 1.92(3) 0.595
P2 P5+ 2 b 0 0 0.5 1.91(4) 1
S1 S2- 8 g 0 0.18890(18) 0.40917(16) 2.09(5) 1
S2 S2- 8 g 0 0.29195(19) 0.1023(2) 3.45(5) 1
S3 S2- 8 g 0 0.7005(2) 0.78737(16) 2.35(5) 1
loop_
_atom_site_aniso_label
_atom_site_aniso_type_symbol
_atom_site_aniso_U_11
_atom_site_aniso_U_22
_atom_site_aniso_U_33
_atom_site_aniso_U_12
_atom_site_aniso_U_13
_atom_site_aniso_U_23
Li1 Li1+ 0.102(8) 0.035(5) 0.111(5) 0.012(3) -0.007(4) -0.051(4)
Li2 Li1+ 0.071(6) 0.039(5) 0.204(8) 0 0 0
Li3 Li1+ 0.074(5) 0.074(5) 0.394(13) -0.034(4) 0.115(4) -0.115(4)
Li4 Li1+ 0.034(6) 0.080(6) 0.043(5) 0 0 0
Sn1 Sn4+ 0.0271(11) 0.0268(10) 0.0191(10) 0 0 0
P1 P5+ 0.0271(11) 0.0268(10) 0.0191(10) 0 0 0
P2 P5+ 0.0212(8) 0.0212(8) 0.0300(16) 0 0 0
S1 S2- 0.0486(14) 0.0186(15) 0.0121(13) 0 0 0.0030(15)
S2 S2- 0.0531(16) 0.0332(14) 0.0448(15) 0 0 -0.0083(13)
S3 S2- 0.0339(16) 0.0290(13) 0.0265(15) 0 0 0.0033(14)
#End of TTdata_252039-ICSD
#
