(C) 2022 by FIZ Karlsruhe - Leibniz Institute for Information Infrastructure.  All rights reserved.
data_194605-ICSD
_database_code_ICSD 194605
_audit_creation_date 2015-08-01
_chemical_name_common 'Calcium tetranitrido-lithiotrialuminate'
_chemical_formula_structural 'Ca (Li Al3 N4)'
_chemical_formula_sum 'Al3 Ca1 Li1 N4'
_chemical_name_structure_type NaLi3SiO4
_exptl_crystal_density_diffrn 3.05
_diffrn_ambient_temperature 293.
_citation_title
'Ca (Li Al3 N4) : Eu(2+). A narrow-band red-emitting nitridolithoaluminate'
loop_
_citation_id
_citation_journal_full
_citation_year
_citation_journal_volume
_citation_page_first
_citation_page_last
_citation_journal_id_ASTM
primary 'Chemistry of Materials' 2014 26 3544 3549 CMATEX
loop_
_citation_author_citation_id
_citation_author_name
primary 'Pust, Philipp'
primary 'Wochnik, Angela S.'
primary 'Baumann, Elen'
primary 'Schmidt, Peter J.'
primary 'Wiechert, Detlef'
primary 'Scheu, Christina'
primary 'Schnick, Wolfgang'
_cell_length_a 11.1600(16)
_cell_length_b 11.1600(16)
_cell_length_c 12.865(3)
_cell_angle_alpha 90.
_cell_angle_beta 90.
_cell_angle_gamma 90.
_cell_volume 1602.28
_cell_formula_units_Z 16
_space_group_name_H-M_alt 'I 41/a Z'
_space_group_IT_number 88
loop_
_space_group_symop_id
_space_group_symop_operation_xyz
1 '-y+3/4, x+3/4, -z+3/4'
2 'y+1/4, -x+3/4, -z+3/4'
3 'x, y+1/2, -z'
4 '-x, -y, -z'
5 'y+1/4, -x+1/4, z+1/4'
6 '-y+3/4, x+1/4, z+1/4'
7 '-x, -y+1/2, z'
8 'x, y, z'
9 '-y+1/4, x+1/4, -z+1/4'
10 'y+3/4, -x+1/4, -z+1/4'
11 'x+1/2, y, -z+1/2'
12 '-x+1/2, -y+1/2, -z+1/2'
13 'y+3/4, -x+3/4, z+3/4'
14 '-y+1/4, x+3/4, z+3/4'
15 '-x+1/2, -y, z+1/2'
16 'x+1/2, y+1/2, z+1/2'
loop_
_atom_type_symbol
_atom_type_oxidation_number
Ca2+ 2
Al3+ 3
Li1+ 1
N3- -3
loop_
_atom_site_label
_atom_site_type_symbol
_atom_site_symmetry_multiplicity
_atom_site_Wyckoff_symbol
_atom_site_fract_x
_atom_site_fract_y
_atom_site_fract_z
_atom_site_U_iso_or_equiv
_atom_site_occupancy
Ca1 Ca2+ 16 f 0.26627(4) 0.00441(3) 0.186020(17) 0.00747(14) 1
Al1 Al3+ 16 f 0.03325(5) 0.08002(4) 0.30855(3) 0.00431(16) 1
Al2 Al3+ 16 f 0.02082(4) 0.09016(4) 0.55935(3) 0.00410(16) 1
Al3 Al3+ 16 f 0.02192(4) 0.08570(4) 0.06621(3) 0.00416(16) 1
Li1 Li1+ 16 f 0.3547(3) 0.2348(3) 0.06581(17) 0.0086(6) 1
N1 N3- 16 f 0.44053(12) 0.08009(12) 0.06858(7) 0.0054(3) 1
N2 N3- 16 f 0.15659(12) 0.18508(13) 0.05929(7) 0.0059(3) 1
N3 N3- 16 f 0.17564(11) 0.16539(12) 0.29918(9) 0.0055(3) 1
N4 N3- 16 f 0.16319(12) 0.17089(12) 0.57203(8) 0.0059(3) 1
loop_
_atom_site_aniso_label
_atom_site_aniso_type_symbol
_atom_site_aniso_U_11
_atom_site_aniso_U_22
_atom_site_aniso_U_33
_atom_site_aniso_U_12
_atom_site_aniso_U_13
_atom_site_aniso_U_23
Ca1 Ca2+ 0.0059(2) 0.00601(19) 0.0104(2) 0.00014(10) 0.00201(10) -0.00438(11)
Al1 Al3+ 0.0038(3) 0.0046(3) 0.0046(3) -0.00016(17) -0.00034(15) 0.00027(14)
Al2 Al3+ 0.0035(3) 0.0046(3) 0.0042(3) -0.00031(16) -0.00033(14) -0.00002(13)
Al3 Al3+ 0.0041(3) 0.0042(3) 0.0043(3) -0.00005(16) 0.00013(14) -0.00041(14)
Li1 Li1+ 0.0122(14) 0.0057(14) 0.0080(15) 0.0033(11) 0.0019(9) -0.0012(8)
N1 N3- 0.0059(6) 0.0056(6) 0.0048(6) 0.0006(5) -0.0005(4) 0.0002(4)
N2 N3- 0.0058(6) 0.0065(6) 0.0056(6) -0.0014(5) 0.0005(4) -0.0003(4)
N3 N3- 0.0046(6) 0.0067(6) 0.0050(5) -0.0010(5) 0.0003(4) 0.0013(4)
N4 N3- 0.0057(6) 0.0066(6) 0.0053(6) -0.0018(5) 0.0008(4) -0.0012(4)
#End of TTdata_194605-ICSD
#
