(C) 2022 by FIZ Karlsruhe - Leibniz Institute for Information Infrastructure.  All rights reserved.
data_117138-ICSD
_database_code_ICSD 117138
_audit_creation_date 2023-02-01
_chemical_name_common 'Lithium hexaoxoaluminodisilicate'
_chemical_formula_structural 'Li (Al Si2) O6'
_chemical_formula_sum 'Al1 Li1 O6 Si2'
_chemical_name_structure_type Li2Al2SiO6
_exptl_crystal_density_diffrn 2.41
_citation_title

;
Phase transitions induced by solid solution in stuffed derivatives of quartz:
A powder synchrotron XRD study of the LiAlSiO$_4$-SiO$_2$ join
;
loop_
_citation_id
_citation_journal_full
_citation_year
_citation_journal_volume
_citation_page_first
_citation_page_last
_citation_journal_id_ASTM
primary 'American Mineralogist' 2000 85 971 979 AMMIAY
loop_
_citation_author_citation_id
_citation_author_name
primary 'Xu, Hongwu'
primary 'Heaney, Peter J.'
primary 'Beall, George H.'
_cell_length_a 5.2102(1)
_cell_length_b 5.2102(1)
_cell_length_c 5.4551(1)
_cell_angle_alpha 90.
_cell_angle_beta 90.
_cell_angle_gamma 120.
_cell_volume 128.25
_cell_formula_units_Z 1
_space_group_name_H-M_alt 'P 62 2 2'
_space_group_IT_number 180
loop_
_space_group_symop_id
_space_group_symop_operation_xyz
1 'x, x-y, -z+1/3'
2 '-x+y, y, -z'
3 '-y, -x, -z+2/3'
4 '-x, -x+y, -z+1/3'
5 'x-y, -y, -z'
6 'y, x, -z+2/3'
7 'x-y, x, z+1/3'
8 'y, -x+y, z+2/3'
9 '-x, -y, z'
10 '-x+y, -x, z+1/3'
11 '-y, x-y, z+2/3'
12 'x, y, z'
loop_
_atom_type_symbol
_atom_type_oxidation_number
Li1+ 1
Si4+ 4
Al3+ 3
O2- -2
loop_
_atom_site_label
_atom_site_type_symbol
_atom_site_symmetry_multiplicity
_atom_site_Wyckoff_symbol
_atom_site_fract_x
_atom_site_fract_y
_atom_site_fract_z
_atom_site_U_iso_or_equiv
_atom_site_occupancy
Li1 Li1+ 3 a 0 0 0 0.013(4) 0.33
Si1 Si4+ 3 c 0.5 0 0 0.0117(3) 0.67
Al1 Al3+ 3 c 0.5 0 0 0.0117(3) 0.33
O1 O2- 6 j 0.2053(2) 0.4106 0.5 0.0223(6) 1.
#End of TTdata_117138-ICSD
#
