(C) 2022 by FIZ Karlsruhe - Leibniz Institute for Information Infrastructure.  All rights reserved.
data_239148-ICSD
_database_code_ICSD 239148
_audit_creation_date 2016-08-01
_chemical_name_common
'Lithium tetrakis(trichloromethyl bis(trifluoromethyl)) aluminate'
_chemical_formula_structural 'Li (Al (O C (C Cl3) (C F3)2)4)'
_chemical_formula_sum 'C16 Al1 Cl12 F24 Li1 O4'
_exptl_crystal_density_diffrn 2.27
_diffrn_ambient_temperature 150.
_citation_title

;
An aliphatic solvent-soluble lithium salt of the perhalogenated weakly
coordinating anion [Al (O C (C Cl3) (C F3)2)4]-
;
loop_
_citation_id
_citation_journal_full
_citation_year
_citation_journal_volume
_citation_page_first
_citation_page_last
_citation_journal_id_ASTM
primary 'Inorganic Chemistry' 2016 55 1008 1010 INOCAJ
loop_
_citation_author_citation_id
_citation_author_name
primary 'Zheng, Xin'
primary 'Zhang, Zaichao'
primary 'Tan, Gengwen'
primary 'Wang, Xinping'
_cell_length_a 10.709(3)
_cell_length_b 13.590(3)
_cell_length_c 11.786(3)
_cell_angle_alpha 90.
_cell_angle_beta 92.665(3)
_cell_angle_gamma 90.
_cell_volume 1713.42
_cell_formula_units_Z 2
_space_group_name_H-M_alt 'P 1 21 1'
_space_group_IT_number 4
loop_
_space_group_symop_id
_space_group_symop_operation_xyz
1 '-x, y+1/2, -z'
2 'x, y, z'
loop_
_atom_type_symbol
_atom_type_oxidation_number
Al3+ 3
Li1+ 1
O2- -2
F1- -1
Cl1- -1
C3+ 2.5
loop_
_atom_site_label
_atom_site_type_symbol
_atom_site_symmetry_multiplicity
_atom_site_Wyckoff_symbol
_atom_site_fract_x
_atom_site_fract_y
_atom_site_fract_z
_atom_site_U_iso_or_equiv
_atom_site_occupancy
Al1 Al3+ 2 a 0.3222(2) 0.5370(2) 0.3207(2) 0.0115(5) 1
Li1 Li1+ 2 a 0.4546(18) 0.3669(16) 0.3395(18) 0.031(4) 1
O1 O2- 2 a 0.2943(6) 0.4153(5) 0.2631(6) 0.0165(14) 1
O2 O2- 2 a 0.4862(6) 0.5117(5) 0.3396(6) 0.0159(14) 1
O3 O2- 2 a 0.2798(6) 0.6312(5) 0.2304(6) 0.0149(13) 1
O4 O2- 2 a 0.2630(6) 0.5503(5) 0.4515(6) 0.0147(13) 1
F1 F1- 2 a 0.6267(5) 0.3849(4) 0.4328(5) 0.0202(12) 1
F2 F1- 2 a 0.8011(5) 0.4493(5) 0.3840(5) 0.0250(13) 1
F3 F1- 2 a 0.6972(6) 0.5166(5) 0.5137(5) 0.0260(14) 1
F4 F1- 2 a 0.7607(5) 0.6569(5) 0.3737(6) 0.0235(13) 1
F5 F1- 2 a 0.5734(6) 0.6738(5) 0.4342(5) 0.0249(13) 1
F6 F1- 2 a 0.6108(6) 0.7006(5) 0.2591(5) 0.0260(14) 1
F7 F1- 2 a 0.3728(6) 0.3878(5) 0.5212(6) 0.0285(15) 1
F8 F1- 2 a 0.4816(6) 0.5019(6) 0.6044(5) 0.0331(17) 1
F9 F1- 2 a 0.3533(7) 0.4144(6) 0.6997(6) 0.0328(16) 1
F10 F1- 2 a 0.3569(7) 0.6232(6) 0.7328(5) 0.0337(16) 1
F11 F1- 2 a 0.3936(6) 0.6796(5) 0.5692(6) 0.0255(14) 1
F12 F1- 2 a 0.2080(8) 0.7007(5) 0.6326(6) 0.0356(17) 1
F13 F1- 2 a 0.1783(6) 0.7643(5) 0.4036(5) 0.0267(14) 1
F14 F1- 2 a 0.3689(6) 0.7774(5) 0.3564(5) 0.0262(14) 1
F15 F1- 2 a 0.2311(7) 0.8835(5) 0.2956(5) 0.0305(15) 1
F16 F1- 2 a 0.0103(6) 0.7840(5) 0.2252(6) 0.0271(14) 1
F17 F1- 2 a 0.0436(6) 0.6363(6) 0.2804(6) 0.0298(15) 1
F18 F1- 2 a 0.0345(6) 0.6694(6) 0.1027(5) 0.0262(14) 1
F19 F1- 2 a 0.1347(6) 0.3410(5) 0.0062(5) 0.0290(15) 1
F20 F1- 2 a 0.1024(7) 0.4796(5) 0.0860(6) 0.0309(15) 1
F21 F1- 2 a 0.2876(6) 0.4414(5) 0.0402(5) 0.0289(15) 1
F22 F1- 2 a 0.0587(6) 0.4454(5) 0.3054(6) 0.0282(14) 1
F23 F1- 2 a 0.0790(7) 0.2915(6) 0.3448(6) 0.0349(17) 1
F24 F1- 2 a -0.0150(6) 0.3357(6) 0.1901(6) 0.0324(16) 1
Cl1 Cl1- 2 a 0.6365(2) 0.3726(2) 0.1867(2) 0.0221(5) 1
Cl2 Cl1- 2 a 0.7900(2) 0.5452(2) 0.1607(2) 0.0233(5) 1
Cl3 Cl1- 2 a 0.5284(2) 0.5501(2) 0.1000(2) 0.0230(5) 1
Cl4 Cl1- 2 a 0.3298(3) 0.2133(2) 0.3250(2) 0.0298(6) 1
Cl5 Cl1- 2 a 0.3811(3) 0.2452(2) 0.0926(3) 0.0314(6) 1
Cl6 Cl1- 2 a 0.1473(3) 0.1618(2) 0.1499(3) 0.0295(6) 1
Cl7 Cl1- 2 a 0.0150(2) 0.5758(3) 0.5377(2) 0.0330(7) 1
Cl8 Cl1- 2 a 0.1194(3) 0.5150(2) 0.7565(2) 0.0315(7) 1
Cl9 Cl1- 2 a 0.1047(3) 0.3804(3) 0.5685(2) 0.0378(7) 1
Cl10 Cl1- 2 a 0.2689(2) 0.6770(2) -0.0095(2) 0.0236(5) 1
Cl11 Cl1- 2 a 0.4194(2) 0.8133(2) 0.1194(2) 0.0234(5) 1
Cl12 Cl1- 2 a 0.1687(2) 0.8651(2) 0.0515(2) 0.0253(6) 1
C1 C3+ 2 a 0.6082(8) 0.5330(7) 0.3231(8) 0.0134(18) 1
C2 C3+ 2 a 0.6415(9) 0.5030(8) 0.1969(9) 0.0171(19) 1
C3 C3+ 2 a 0.6891(9) 0.4706(8) 0.4132(8) 0.017(2) 1
C4 C3+ 2 a 0.6384(9) 0.6436(10) 0.3463(9) 0.024(2) 1
C5 C3+ 2 a 0.2215(9) 0.7190(8) 0.2121(7) 0.016(2) 1
C6 C3+ 2 a 0.2655(9) 0.7660(7) 0.0985(8) 0.0155(19) 1
C7 C3+ 2 a 0.2490(9) 0.7891(8) 0.3168(8) 0.018(2) 1
C8 C3+ 2 a 0.0751(9) 0.7020(8) 0.2038(10) 0.021(2) 1
C9 C3+ 2 a 0.2090(8) 0.3597(8) 0.2025(8) 0.0158(19) 1
C10 C3+ 2 a 0.2653(10) 0.2498(8) 0.1879(8) 0.018(2) 1
C11 C3+ 2 a 0.1835(10) 0.4055(9) 0.0795(9) 0.025(2) 1
C12 C3+ 2 a 0.0790(10) 0.3559(8) 0.2613(9) 0.021(2) 1
C13 C3+ 2 a 0.2663(9) 0.5385(8) 0.5677(8) 0.019(2) 1
C14 C3+ 2 a 0.1321(11) 0.5064(11) 0.6071(9) 0.031(3) 1
C15 C3+ 2 a 0.3691(12) 0.4584(10) 0.6013(10) 0.032(3) 1
C16 C3+ 2 a 0.3063(10) 0.6399(9) 0.6273(9) 0.023(2) 1
loop_
_atom_site_aniso_label
_atom_site_aniso_type_symbol
_atom_site_aniso_U_11
_atom_site_aniso_U_22
_atom_site_aniso_U_33
_atom_site_aniso_U_12
_atom_site_aniso_U_13
_atom_site_aniso_U_23
Al1 Al3+ 0.0143(12) 0.0092(14) 0.0113(12) 0.0008(10) 0.0045(9) -0.0002(11)
Li1 Li1+ 0.035(10) 0.017(10) 0.041(11) -0.017(8) -0.003(8) -0.001(9)
O1 O2- 0.018(3) 0.010(3) 0.021(3) 0.001(3) -0.004(3) 0.002(3)
O2 O2- 0.017(3) 0.015(4) 0.016(3) -0.001(3) 0.002(2) 0.002(3)
O3 O2- 0.021(3) 0.011(3) 0.013(3) 0.002(3) 0.005(2) 0.004(3)
O4 O2- 0.022(3) 0.006(3) 0.018(3) 0.005(3) 0.015(2) 0.006(3)
F1 F1- 0.030(3) 0.008(3) 0.022(3) 0.000(2) 0.001(2) 0.003(2)
F2 F1- 0.020(3) 0.027(4) 0.029(3) 0.008(3) 0.002(2) 0.002(3)
F3 F1- 0.030(3) 0.034(4) 0.013(3) 0.003(3) 0.000(2) 0.000(3)
F4 F1- 0.016(3) 0.015(3) 0.039(4) -0.008(2) -0.002(2) -0.007(3)
F5 F1- 0.026(3) 0.021(3) 0.029(3) 0.002(3) 0.004(2) -0.012(3)
F6 F1- 0.034(3) 0.018(3) 0.027(3) -0.001(3) 0.008(3) 0.009(3)
F7 F1- 0.039(4) 0.017(4) 0.030(3) 0.006(3) 0.006(3) 0.007(3)
F8 F1- 0.023(3) 0.051(5) 0.025(3) 0.015(3) 0.006(2) 0.005(3)
F9 F1- 0.044(4) 0.036(4) 0.019(3) 0.009(3) 0.008(3) 0.009(3)
F10 F1- 0.043(4) 0.041(4) 0.017(3) -0.012(3) -0.001(3) -0.007(3)
F11 F1- 0.024(3) 0.024(4) 0.029(3) -0.010(3) 0.010(2) 0.000(3)
F12 F1- 0.064(5) 0.019(4) 0.024(3) 0.008(3) 0.005(3) -0.009(3)
F13 F1- 0.035(3) 0.030(4) 0.016(3) 0.008(3) 0.013(2) -0.003(3)
F14 F1- 0.031(3) 0.028(4) 0.019(3) 0.001(3) -0.003(2) -0.008(3)
F15 F1- 0.049(4) 0.018(3) 0.024(3) 0.005(3) -0.002(3) -0.004(3)
F16 F1- 0.025(3) 0.023(4) 0.033(3) 0.010(3) 0.007(3) 0.001(3)
F17 F1- 0.022(3) 0.042(4) 0.026(3) 0.003(3) 0.012(2) 0.012(3)
F18 F1- 0.025(3) 0.030(4) 0.023(3) 0.002(3) -0.002(2) -0.001(3)
F19 F1- 0.040(4) 0.031(4) 0.016(3) -0.011(3) -0.007(3) -0.004(3)
F20 F1- 0.047(4) 0.017(4) 0.028(3) 0.008(3) -0.003(3) 0.000(3)
F21 F1- 0.030(3) 0.033(4) 0.024(3) -0.014(3) 0.001(3) 0.005(3)
F22 F1- 0.024(3) 0.027(4) 0.034(4) 0.002(3) 0.009(3) -0.004(3)
F23 F1- 0.040(4) 0.038(5) 0.028(3) -0.004(3) 0.016(3) 0.004(3)
F24 F1- 0.022(3) 0.042(4) 0.033(4) -0.005(3) 0.001(3) -0.005(3)
Cl1 Cl1- 0.0278(11) 0.0151(12) 0.0239(11) 0.0002(10) 0.0065(9) -0.0070(10)
Cl2 Cl1- 0.0192(11) 0.0242(14) 0.0274(12) -0.0030(10) 0.0103(9) -0.0034(11)
Cl3 Cl1- 0.0229(11) 0.0298(15) 0.0163(10) -0.0020(10) 0.0011(8) 0.0033(10)
Cl4 Cl1- 0.0412(15) 0.0149(13) 0.0321(14) -0.0017(11) -0.0099(11) 0.0047(11)
Cl5 Cl1- 0.0278(12) 0.0305(16) 0.0371(15) -0.0020(11) 0.0123(11) -0.0174(12)
Cl6 Cl1- 0.0347(13) 0.0175(14) 0.0361(14) -0.0104(10) -0.0005(11) -0.0077(11)
Cl7 Cl1- 0.0214(12) 0.052(2) 0.0259(13) -0.0010(12) 0.0057(10) -0.0006(13)
Cl8 Cl1- 0.0381(14) 0.0417(18) 0.0158(11) -0.0069(12) 0.0127(10) -0.0006(11)
Cl9 Cl1- 0.0554(18) 0.0287(17) 0.0302(14) -0.0160(14) 0.0123(12) 0.0015(13)
Cl10 Cl1- 0.0375(13) 0.0199(13) 0.0138(11) 0.0016(11) 0.0061(9) -0.0028(10)
Cl11 Cl1- 0.0234(11) 0.0258(14) 0.0212(12) -0.0033(9) 0.0026(9) 0.0049(10)
Cl12 Cl1- 0.0322(12) 0.0217(14) 0.0219(11) 0.0064(11) 0.0000(9) 0.0076(11)
C1 C3+ 0.013(4) 0.010(5) 0.017(4) 0.006(3) 0.004(3) 0.003(4)
C2 C3+ 0.017(4) 0.008(5) 0.025(5) -0.003(4) 0.002(4) -0.003(4)
C3 C3+ 0.014(4) 0.023(6) 0.013(4) -0.007(4) 0.001(3) 0.002(4)
C4 C3+ 0.010(4) 0.041(7) 0.021(5) 0.004(4) 0.001(4) 0.004(5)
C5 C3+ 0.025(5) 0.018(5) 0.005(4) 0.000(4) 0.005(3) 0.005(4)
C6 C3+ 0.025(5) 0.009(5) 0.013(4) 0.006(4) 0.005(4) 0.006(4)
C7 C3+ 0.024(5) 0.021(6) 0.010(4) 0.005(4) 0.005(3) -0.002(4)
C8 C3+ 0.020(5) 0.011(5) 0.033(6) 0.002(4) 0.002(4) 0.010(4)
C9 C3+ 0.017(4) 0.015(5) 0.016(4) -0.003(4) 0.003(3) -0.002(4)
C10 C3+ 0.026(4) 0.012(4) 0.016(3) -0.010(3) 0.001(3) -0.006(3)
C11 C3+ 0.027(5) 0.025(6) 0.024(5) -0.009(4) 0.008(4) 0.010(5)
C12 C3+ 0.029(5) 0.018(6) 0.017(5) -0.001(4) 0.009(4) -0.009(4)
C13 C3+ 0.029(5) 0.011(5) 0.016(4) -0.001(4) 0.007(4) -0.002(4)
C14 C3+ 0.030(5) 0.045(8) 0.017(5) 0.003(5) 0.008(4) 0.018(5)
C15 C3+ 0.039(6) 0.031(7) 0.026(6) 0.004(5) 0.002(5) 0.002(5)
C16 C3+ 0.025(5) 0.026(6) 0.019(5) 0.003(4) 0.010(4) 0.006(4)
#End of TTdata_239148-ICSD
#
