(C) 2022 by FIZ Karlsruhe - Leibniz Institute for Information Infrastructure.  All rights reserved.
data_252981-ICSD
_database_code_ICSD 252981
_audit_creation_date 2017-08-01
_chemical_name_common 'Lithium pentaoxo-alumosilicate'
_chemical_formula_structural 'Li Al Si O3 (O H)2'
_chemical_formula_sum 'H2 Al1 Li1 O5 Si1'
_exptl_crystal_density_diffrn 2.83
_diffrn_ambient_temperature 296.
_citation_title

;
Crystallization of LiAlSiO4 glass in hydrothermal environments at gigapascal
pressures-dense hydrous aluminosilicates
;
loop_
_citation_id
_citation_journal_full
_citation_year
_citation_journal_volume
_citation_page_first
_citation_page_last
_citation_journal_id_ASTM
primary 'Inorganic Chemistry' 2016 55 8048 8058 INOCAJ
loop_
_citation_author_citation_id
_citation_author_name
primary 'Spektor, Kristina'
primary 'Fischer, Andreas'
primary 'Haeussermann, Ulrich'
_cell_length_a 9.547(3)
_cell_length_b 14.461(5)
_cell_length_c 5.0623(15)
_cell_angle_alpha 90
_cell_angle_beta 104.360(8)
_cell_angle_gamma 90
_cell_volume 677.06
_cell_formula_units_Z 8
_space_group_name_H-M_alt 'P 1 21/c 1'
_space_group_IT_number 14
loop_
_space_group_symop_id
_space_group_symop_operation_xyz
1 'x, -y+1/2, z+1/2'
2 '-x, -y, -z'
3 '-x, y+1/2, -z+1/2'
4 'x, y, z'
loop_
_atom_type_symbol
_atom_type_oxidation_number
Si4+ 4
Al3+ 3
O2- -2
Li1+ 1
H1+ 1
loop_
_atom_site_label
_atom_site_type_symbol
_atom_site_symmetry_multiplicity
_atom_site_Wyckoff_symbol
_atom_site_fract_x
_atom_site_fract_y
_atom_site_fract_z
_atom_site_U_iso_or_equiv
_atom_site_occupancy
Si1 Si4+ 4 e 1.0473(2) 0.19359(16) 0.8223(5) 0.0016(6) 1
Si2 Si4+ 4 e 0.4566(3) 0.19369(17) 0.2562(5) 0.0043(7) 1
Al1 Al3+ 4 e 0.7504(3) 0.09681(15) 0.5291(5) 0.0027(6) 1
Al2 Al3+ 4 e 1.2516(3) 0.01299(16) 0.9691(5) 0.0027(6) 1
O1 O2- 4 e 0.8538(6) -0.0030(4) 0.7588(12) 0.0041(13) 1
O2 O2- 4 e 1.0970(6) 0.2795(4) 0.6477(12) 0.0055(14) 1
O3 O2- 4 e 0.6456(6) -0.0006(4) 0.3020(12) 0.0044(13) 1
O4 O2- 4 e 0.6492(6) 0.0881(4) 0.8055(11) 0.0042(13) 1
O5 O2- 4 e 0.8549(6) 0.0858(4) 0.2596(11) 0.0037(13) 1
O6 O2- 4 e 0.8735(6) 0.1852(3) 0.7268(11) 0.0016(13) 1
O7 O2- 4 e 1.1281(6) 0.1006(4) 0.7659(11) 0.0071(15) 1
O8 O2- 4 e 0.4046(6) 0.2767(4) 0.0335(12) 0.0067(14) 1
O9 O2- 4 e 0.3781(6) 0.0970(3) 0.1720(11) 0.0040(13) 1
O10 O2- 4 e 0.6315(6) 0.1862(4) 0.3325(12) 0.0063(14) 1
Li1 Li1+ 4 e 0.7540(19) 0.2018(10) 0.026(3) 0.017(4) 1
Li2 Li1+ 4 e 0.2454(17) 0.1106(10) 0.469(3) 0.014(3) 1
#End of TTdata_252981-ICSD
