(C) 2022 by FIZ Karlsruhe - Leibniz Institute for Information Infrastructure.  All rights reserved.
data_246420-ICSD
_database_code_ICSD 246420
_audit_creation_date 2009-08-01
_chemical_name_common 'Lithium aluminium tetradeuteride - alpha'
_chemical_formula_structural 'Li (Al D4)'
_chemical_formula_sum 'D4 Al1 Li1'
_chemical_name_structure_type LiAlH4
_exptl_crystal_density_diffrn 1.21
_diffrn_ambient_temperature 293.
_diffrn_ambient_pressure 2710000.
_citation_title 'Pressure-induced phase transitions of the Li Al D4 system'
loop_
_citation_id
_citation_journal_full
_citation_year
_citation_journal_volume
_citation_page_first
_citation_page_last
_citation_journal_id_ASTM
primary 'Physical Review B: Condensed Matter and Materials Physics' 2005 72 1 9
PRBMDO
loop_
_citation_author_citation_id
_citation_author_name
primary 'Pitt, M.P.'
primary 'Blanchard, D.'
primary 'Hauback, B.C.'
primary 'Fjellvag, H.'
primary 'Marshall, W.G.'
_cell_length_a 4.518(1)
_cell_length_b 7.115(2)
_cell_length_c 7.694(2)
_cell_angle_alpha 90
_cell_angle_beta 110.93(3)
_cell_angle_gamma 90
_cell_volume 231.01
_cell_formula_units_Z 4
_space_group_name_H-M_alt 'P 1 21/c 1'
_space_group_IT_number 14
loop_
_space_group_symop_id
_space_group_symop_operation_xyz
1 'x, -y+1/2, z+1/2'
2 '-x, -y, -z'
3 '-x, y+1/2, -z+1/2'
4 'x, y, z'
loop_
_atom_type_symbol
_atom_type_oxidation_number
Li1+ 1
Al3+ 3
D1- -1
loop_
_atom_site_label
_atom_site_type_symbol
_atom_site_symmetry_multiplicity
_atom_site_Wyckoff_symbol
_atom_site_fract_x
_atom_site_fract_y
_atom_site_fract_z
_atom_site_B_iso_or_equiv
_atom_site_occupancy
Li1 Li1+ 4 e 0.535(9) 0.475(7) 0.817(5) 1.9(3) 1.
Al1 Al3+ 4 e 0.128(5) 0.197(4) 0.945(3) 1.9(4) 1.
D1 D1- 4 e 0.218(8) 0.058(5) 0.805(4) 2.8(1) 1.
D2 D1- 4 e 0.332(7) 0.392(5) 0.979(4) 2.8(1) 1.
D3 D1- 4 e 0.202(7) 0.089(5) 0.139(4) 2.8(1) 1.
D4 D1- 4 e 0.754(8) 0.252(5) 0.853(5) 2.8(1) 1.
#End of TTdata_246420-ICSD
#
