(C) 2022 by FIZ Karlsruhe - Leibniz Institute for Information Infrastructure.  All rights reserved.
data_22247-ICSD
_database_code_ICSD 22247
_audit_creation_date 1980-01-01
_audit_update_record 2010-02-01
_chemical_name_common 'Lithium aluminium hydride'
_chemical_formula_structural 'Li (Al H4)'
_chemical_formula_sum 'H4 Al1 Li1'
_chemical_name_structure_type LiAlH4
_exptl_crystal_density_diffrn 0.91
_citation_title 'The crystal structure of lithium aluminum hydride.'
loop_
_citation_id
_citation_journal_full
_citation_year
_citation_journal_volume
_citation_page_first
_citation_page_last
_citation_journal_id_ASTM
primary 'Inorganic Chemistry' 1967 6 669 671 INOCAJ
loop_
_citation_author_citation_id
_citation_author_name
primary 'Sklar, N.'
primary 'Post, B.'
_cell_length_a 4.845(4)
_cell_length_b 7.826(4)
_cell_length_c 7.917(4)
_cell_angle_alpha 90.
_cell_angle_beta 112.5(2)
_cell_angle_gamma 90.
_cell_volume 277.34
_cell_formula_units_Z 4
_space_group_name_H-M_alt 'P 1 21/c 1'
_space_group_IT_number 14
loop_
_space_group_symop_id
_space_group_symop_operation_xyz
1 'x, -y+1/2, z+1/2'
2 '-x, -y, -z'
3 '-x, y+1/2, -z+1/2'
4 'x, y, z'
loop_
_atom_type_symbol
_atom_type_oxidation_number
Al3+ 3
Li1+ 1
H1- -1
loop_
_atom_site_label
_atom_site_type_symbol
_atom_site_symmetry_multiplicity
_atom_site_Wyckoff_symbol
_atom_site_fract_x
_atom_site_fract_y
_atom_site_fract_z
_atom_site_B_iso_or_equiv
_atom_site_occupancy
Al1 Al3+ 4 e 0.14033(10) 0.20131(6) 0.93151(6) . 1.
Li1 Li1+ 4 e 0.56896(82) 0.46604(44) 0.82164(46) . 1.
H1 H1- 4 e 0.2005(63) 0.1020(33) 0.7816(36) 1.93 1.
H2 H1- 4 e 0.312(6) 0.3682(34) 0.9709(34) 1.93 1.
H3 H1- 4 e 0.2382(60) 0.0911(31) 0.1087(33) 1.93 1.
H4 H1- 4 e 0.8032(59) 0.2552(36) 0.8760(35) 1.93 1.
loop_
_atom_site_aniso_label
_atom_site_aniso_type_symbol
_atom_site_aniso_beta_11
_atom_site_aniso_beta_22
_atom_site_aniso_beta_33
_atom_site_aniso_beta_12
_atom_site_aniso_beta_13
_atom_site_aniso_beta_23
Al1 Al3+ 0.0204(4) 0.0073(1) 0.0097(1) -.0004(1) 0.0057(1) -.0003(1)
Li1 Li1+ 0.0387(16) 0.0144(6) 0.0139(6) 0.0036(8) 0.0098(8) -.0027(5)
#End of TTdata_22247-ICSD
#
