(C) 2022 by FIZ Karlsruhe - Leibniz Institute for Information Infrastructure.  All rights reserved.
data_95203-ICSD
_database_code_ICSD 95203
_audit_creation_date 2003-10-01
_chemical_name_common 'Lithium tetradeuterioaluminate'
_chemical_formula_structural 'Li (Al D4)'
_chemical_formula_sum 'D4 Al1 Li1'
_chemical_name_structure_type LiAlH4
_exptl_crystal_density_diffrn 1.02
_diffrn_ambient_temperature 8.
_citation_title

;
Accurate structure of Li Al D4 studied by combined powder neutron and X-ray
diffraction
;
loop_
_citation_id
_citation_journal_full
_citation_year
_citation_journal_volume
_citation_page_first
_citation_page_last
_citation_journal_id_ASTM
primary 'Journal of Alloys and Compounds' 2002 346 184 189 JALCEU
loop_
_citation_author_citation_id
_citation_author_name
primary 'Hauback, B.C.'
primary 'Brinks, H.W.'
primary 'Fjellvag, H.'
_cell_length_a 4.8174(2)
_cell_length_b 7.8020(3)
_cell_length_c 7.8214(3)
_cell_angle_alpha 90
_cell_angle_beta 112.228(2)
_cell_angle_gamma 90
_cell_volume 272.12
_cell_formula_units_Z 4
_space_group_name_H-M_alt 'P 1 21/c 1'
_space_group_IT_number 14
loop_
_space_group_symop_id
_space_group_symop_operation_xyz
1 'x, -y+1/2, z+1/2'
2 '-x, -y, -z'
3 '-x, y+1/2, -z+1/2'
4 'x, y, z'
loop_
_atom_type_symbol
_atom_type_oxidation_number
Al3+ 3
Li1+ 1
D1- -1
loop_
_atom_site_label
_atom_site_type_symbol
_atom_site_symmetry_multiplicity
_atom_site_Wyckoff_symbol
_atom_site_fract_x
_atom_site_fract_y
_atom_site_fract_z
_atom_site_B_iso_or_equiv
_atom_site_occupancy
Al1 Al3+ 4 e 0.1386(11) 0.2033(6) 0.9302(6) 0.5(3) 1.
Li1 Li1+ 4 e 0.5703(24) 0.4656(11) 0.8266(11) 0.5(4) 1.
D1 D1- 4 e 0.1826(6) 0.0958(4) 0.7643(3) 1.6(1) 1.
D2 D1- 4 e 0.3524(6) 0.3713(4) 0.9749(4) 1.2(1) 1.
D3 D1- 4 e 0.2425(6) 0.0806(3) 0.1148(4) 1.2(1) 1.
D4 D1- 4 e 0.7994(7) 0.2649(4) 0.8724(4) 1.4(1) 1.
#End of TTdata_95203-ICSD
