(C) 2022 by FIZ Karlsruhe - Leibniz Institute for Information Infrastructure.  All rights reserved.
data_250816-ICSD
_database_code_ICSD 250816
_audit_creation_date 2015-02-01
_chemical_name_common 'Strontium bis(tetrahydroborane) chloride'
_chemical_formula_structural 'Sr (B H4) Cl'
_chemical_formula_sum 'H4 B1 Cl1 Sr1'
_exptl_crystal_density_diffrn 1.23
_diffrn_ambient_temperature 293.
_citation_title
'Novel alkali earth borohydride Sr(BH4)2 and borohydride-chloride Sr(BH4)Cl'
loop_
_citation_id
_citation_journal_full
_citation_year
_citation_journal_volume
_citation_page_first
_citation_page_last
_citation_journal_id_ASTM
primary 'Inorganic Chemistry' 2013 52 10877 10885 INOCAJ
loop_
_citation_author_citation_id
_citation_author_name
primary 'Ravnsbaek, D.B.'
primary 'Nickels, E.A.'
primary 'Cerny, R.'
primary 'Olesen, C.H.'
primary 'David, W.I.F.'
primary 'Edwards, P.P.'
primary 'Filinchuk, Y.'
primary 'Jensen, T.R.'
_cell_length_a 10.8873(5)
_cell_length_b 4.6036(2)
_cell_length_c 7.4407(4)
_cell_angle_alpha 90.
_cell_angle_beta 90.
_cell_angle_gamma 90.
_cell_volume 372.93
_cell_formula_units_Z 2
_space_group_name_H-M_alt 'P n m a'
_space_group_IT_number 62
loop_
_space_group_symop_id
_space_group_symop_operation_xyz
1 'x+1/2, y, -z+1/2'
2 'x, -y+1/2, z'
3 '-x+1/2, y+1/2, z+1/2'
4 '-x, -y, -z'
5 '-x+1/2, -y, z+1/2'
6 '-x, y+1/2, -z'
7 'x+1/2, -y+1/2, -z+1/2'
8 'x, y, z'
loop_
_atom_type_symbol
_atom_type_oxidation_number
Sr2+ 2
B3+ 3
Cl1- -1
H1- -1
loop_
_atom_site_label
_atom_site_type_symbol
_atom_site_symmetry_multiplicity
_atom_site_Wyckoff_symbol
_atom_site_fract_x
_atom_site_fract_y
_atom_site_fract_z
_atom_site_B_iso_or_equiv
_atom_site_occupancy
Sr1 Sr2+ 4 c 0.1605(2) 0.75 0.8495(3) 2.191(103) 0.5
B1 B3+ 4 c 0.6373(3) 0.25 0.8897(5) 1.551(164) 0.5
Cl1 Cl1- 4 c 0.8913(4) 0.75 0.8988(7) 1.551(164) 0.5
H1 H1- 4 c 0.5410(3) 0.25 0.9468(5) 1.551(164) 0.5
H2 H1- 4 c 0.6324(3) 0.25 0.7380(5) 1.551(164) 0.5
H3 H1- 8 d 0.6877(3) 0.4505 0.93710(5) 1.551(164) 0.5
#End of TTdata_250816-ICSD
#
