(C) 2022 by FIZ Karlsruhe - Leibniz Institute for Information Infrastructure.  All rights reserved.
data_163689-ICSD
_database_code_ICSD 163689
_audit_creation_date 2009-08-01
_chemical_name_common 'Dilithium dodecahydro-closo-dodecaborate tetrahydrate'
_chemical_formula_structural 'Li2 (B12 H12) (H2 O)4'
_chemical_formula_sum 'H20 B12 Li2 O4'
_exptl_crystal_density_diffrn 1.18
_diffrn_ambient_temperature 293.
_citation_title

;
Crystal structure, neutron vibrational spectroscopy, and DFT calculations of
Li2 B12 H12 * 4(H2 O)
;
loop_
_citation_id
_citation_journal_full
_citation_year
_citation_journal_volume
_citation_page_first
_citation_page_last
_citation_journal_id_ASTM
primary 'Inorganica Chimica Acta' 2009 362 3155 3158 ICHAA3
loop_
_citation_author_citation_id
_citation_author_name
primary 'Yousufuddin, M.'
primary 'Her Jae-Hyuk'
primary 'Zhou Wei'
primary 'Jalisatgi, S.S.'
primary 'Udovic, T.J.'
_cell_length_a 10.7889(3)
_cell_length_b 9.2487(3)
_cell_length_c 7.2845(2)
_cell_angle_alpha 90.
_cell_angle_beta 61.667(2)
_cell_angle_gamma 90.
_cell_volume 639.8
_cell_formula_units_Z 2
_space_group_name_H-M_alt 'C 1 2/m 1'
_space_group_IT_number 12
loop_
_space_group_symop_id
_space_group_symop_operation_xyz
1 '-x, y, -z'
2 '-x, -y, -z'
3 'x, -y, z'
4 'x, y, z'
5 '-x+1/2, y+1/2, -z'
6 '-x+1/2, -y+1/2, -z'
7 'x+1/2, -y+1/2, z'
8 'x+1/2, y+1/2, z'
loop_
_atom_type_symbol
_atom_type_oxidation_number
Li1+ 1
B1+ 0.833
O2- -2
H1+ 1
H1- -1
loop_
_atom_site_label
_atom_site_type_symbol
_atom_site_symmetry_multiplicity
_atom_site_Wyckoff_symbol
_atom_site_fract_x
_atom_site_fract_y
_atom_site_fract_z
_atom_site_B_iso_or_equiv
_atom_site_occupancy
Li1 Li1+ 4 i 0.6452 0. 0.4628 3.9(5) 1.
B1 B1+ 8 j 0.1047 0.0972 -0.2193 2.5(1) 1.
B2 B1+ 8 j 0.0691 0.1572 0.0358 2.5(1) 1.
B3 B1+ 4 i -0.1765 0. 0.0777 2.5(1) 1.
B4 B1+ 4 i 0.0471 0. 0.1934 2.5(1) 1.
O1 O2- 4 h 0.5 0.1535 0.5 3.4(2) 1.
O2 O2- 4 i 0.6268 0. 0.7476 5.4(2) 1.
H1 H1+ 8 j 0.4295 0.217 0.5982 2.5(1) 1.
H2 H1+ 8 j 0.643 0.0819 0.814 2.5(1) 1.
H3 H1- 8 j 0.1766 0.164 -0.3701 2.5(1) 1.
H4 H1- 8 j 0.1166 0.2654 0.0603 2.5(1) 1.
H5 H1- 4 i -0.2979 0. 0.1311 2.5(1) 1.
H6 H1- 4 i 0.0795 0. 0.3264 2.5(1) 1.
#End of TTdata_163689-ICSD
#
