(C) 2022 by FIZ Karlsruhe - Leibniz Institute for Information Infrastructure.  All rights reserved.
data_186262-ICSD
_database_code_ICSD 186262
_audit_creation_date 2013-02-01
_audit_update_record 2016-02-01
_chemical_name_common 'Lithium tetahydridoborate'
_chemical_formula_structural 'Li (B H4)'
_chemical_formula_sum 'H4 B1 Li1'
_chemical_name_structure_type LiBH4(hP12)
_exptl_crystal_density_diffrn 0.64
_diffrn_ambient_temperature 535.
_citation_title

;
Lightest borohydride probed by synchrotron x-ray diffraction: experiment calls
for a new theoretical revision
;
loop_
_citation_id
_citation_journal_full
_citation_year
_citation_journal_volume
_citation_page_first
_citation_page_last
_citation_journal_id_ASTM
primary 'Journal of Physical Chemistry C' 2008 112 10579 10584 JPCCCK
loop_
_citation_author_citation_id
_citation_author_name
primary 'Filinchuk, Y.'
primary 'Chernyshov, D.'
primary 'Cerny, R.'
_cell_length_a 4.3228(10)
_cell_length_b 4.3228(10)
_cell_length_c 7.0368(10)
_cell_angle_alpha 90.
_cell_angle_beta 90.
_cell_angle_gamma 120.
_cell_volume 113.88
_cell_formula_units_Z 2
_space_group_name_H-M_alt 'P 63 m c'
_space_group_IT_number 186
loop_
_space_group_symop_id
_space_group_symop_operation_xyz
1 '-x, -x+y, z+1/2'
2 'x-y, -y, z+1/2'
3 'y, x, z+1/2'
4 'x-y, x, z+1/2'
5 'y, -x+y, z+1/2'
6 '-x, -y, z+1/2'
7 'x, x-y, z'
8 '-x+y, y, z'
9 '-y, -x, z'
10 '-x+y, -x, z'
11 '-y, x-y, z'
12 'x, y, z'
loop_
_atom_type_symbol
_atom_type_oxidation_number
Li1+ 1
B3+ 3
H1- -1
loop_
_atom_site_label
_atom_site_type_symbol
_atom_site_symmetry_multiplicity
_atom_site_Wyckoff_symbol
_atom_site_fract_x
_atom_site_fract_y
_atom_site_fract_z
_atom_site_U_iso_or_equiv
_atom_site_occupancy
Li1 Li1+ 2 b 0.3333 0.6667 0. 0.121(5) 1
B1 B3+ 2 b 0.3333 0.6667 0.573(2) 0.119(5) 1
H1 H1- 2 b 0.3333 0.6667 0.415(14) 0.19(5) 1
H2 H1- 6 c 0.203(7) 0.406(13) 0.626(8) 0.20(3) 1
loop_
_atom_site_aniso_label
_atom_site_aniso_type_symbol
_atom_site_aniso_U_11
_atom_site_aniso_U_22
_atom_site_aniso_U_33
_atom_site_aniso_U_12
_atom_site_aniso_U_13
_atom_site_aniso_U_23
Li1 Li1+ 0.105(5) 0.105(5) 0.153(11) 0.052(3) 0. 0.
B1 B3+ 0.087(4) 0.087(4) 0.182(13) 0.0435(18) 0. 0.
H1 H1- 0.25(8) 0.25(8) 0.07(2) 0.13(4) 0. 0.
H2 H1- 0.25(7) 0.10(2) 0.20(6) 0.052(11) 0.002(13) 0.00(3)
#End of TTdata_186262-ICSD
#
