(C) 2022 by FIZ Karlsruhe - Leibniz Institute for Information Infrastructure.  All rights reserved.
data_194778-ICSD
_database_code_ICSD 194778
_audit_creation_date 2015-08-01
_chemical_name_common 'Dilithium decahydro-closo-decaborate'
_chemical_formula_structural 'Li2 (B10 H10)'
_chemical_formula_sum 'H10 B10 Li2'
_exptl_crystal_density_diffrn 1.03
_diffrn_ambient_temperature 295.
_citation_title 'Structural behavior of Li2 B10 H10'
loop_
_citation_id
_citation_journal_full
_citation_year
_citation_journal_volume
_citation_page_first
_citation_page_last
_citation_journal_id_ASTM
primary 'Journal of Physical Chemistry C' 2015 119 6481 6487 JPCCCK
loop_
_citation_author_citation_id
_citation_author_name
primary 'Wu, Hui'
primary 'Tang, Wan Si'
primary 'Stavila, Vitalie'
primary 'Zhou, Wei'
primary 'Rush, John J.'
primary 'Udovic, Terrence J.'
_cell_length_a 7.0423
_cell_length_b 7.0423
_cell_length_c 14.9313(24)
_cell_angle_alpha 90.
_cell_angle_beta 90.
_cell_angle_gamma 120.
_cell_volume 641.29
_cell_formula_units_Z 3
_space_group_name_H-M_alt 'P 64 2 2'
_space_group_IT_number 181
loop_
_space_group_symop_id
_space_group_symop_operation_xyz
1 'x, x-y, -z+2/3'
2 '-x+y, y, -z'
3 '-y, -x, -z+1/3'
4 '-x, -x+y, -z+2/3'
5 'x-y, -y, -z'
6 'y, x, -z+1/3'
7 'x-y, x, z+2/3'
8 'y, -x+y, z+1/3'
9 '-x, -y, z'
10 '-x+y, -x, z+2/3'
11 '-y, x-y, z+1/3'
12 'x, y, z'
loop_
_atom_type_symbol
_atom_type_oxidation_number
Li0+ 0
B0+ 0
H0+ 0
loop_
_atom_site_label
_atom_site_type_symbol
_atom_site_symmetry_multiplicity
_atom_site_Wyckoff_symbol
_atom_site_fract_x
_atom_site_fract_y
_atom_site_fract_z
_atom_site_U_iso_or_equiv
_atom_site_occupancy
Li1 Li0+ 6 f 0.5 0.5 0.4277(11) 0.05744 1.
B1 B0+ 6 i 0.6969(8) 0.3484(8) 0.33333 0.02148 1.
B2 B0+ 12 k 0.8720(8) 0.6070(4) 0.3680(4) 0.02148 1.
B3 B0+ 12 k 0.8844(8) 0.3693(10) 0.41088(35) 0.02148 1.
H1 H0+ 6 i 0.4996(10) 0.2498(10) 0.33333 0.02148 1.
H2 H0+ 12 k 0.8110(15) 0.7238(10) 0.4006(8) 0.02148 1.
H3 H0+ 12 k 0.8174(16) 0.2647(15) 0.4788(5) 0.02148 1.
#End of TTdata_194778-ICSD
#
