(C) 2022 by FIZ Karlsruhe - Leibniz Institute for Information Infrastructure.  All rights reserved.
data_186261-ICSD
_database_code_ICSD 186261
_audit_creation_date 2013-02-01
_chemical_name_common 'Lithium tetrahydridoborate'
_chemical_formula_structural 'Li (B H4)'
_chemical_formula_sum 'H4 B1 Li1'
_chemical_name_structure_type LiBH4
_exptl_crystal_density_diffrn 0.68
_diffrn_ambient_temperature 225.
_citation_title

;
Lightest borohydride probed by synchrotron x-ray diffraction: experiment calls
for a new theoretical revision
;
loop_
_citation_id
_citation_journal_full
_citation_year
_citation_journal_volume
_citation_page_first
_citation_page_last
_citation_journal_id_ASTM
primary 'Journal of Physical Chemistry C' 2008 112 10579 10584 JPCCCK
loop_
_citation_author_citation_id
_citation_author_name
primary 'Filinchuk, Y.'
primary 'Chernyshov, D.'
primary 'Cerny, R.'
_cell_length_a 7.141(5)
_cell_length_b 4.431(3)
_cell_length_c 6.748(4)
_cell_angle_alpha 90.
_cell_angle_beta 90.
_cell_angle_gamma 90.
_cell_volume 213.52
_cell_formula_units_Z 4
_space_group_name_H-M_alt 'P n m a'
_space_group_IT_number 62
loop_
_space_group_symop_id
_space_group_symop_operation_xyz
1 'x+1/2, y, -z+1/2'
2 'x, -y+1/2, z'
3 '-x+1/2, y+1/2, z+1/2'
4 '-x, -y, -z'
5 '-x+1/2, -y, z+1/2'
6 '-x, y+1/2, -z'
7 'x+1/2, -y+1/2, -z+1/2'
8 'x, y, z'
loop_
_atom_type_symbol
_atom_type_oxidation_number
Li1+ 1
B3+ 3
H1- -1
loop_
_atom_site_label
_atom_site_type_symbol
_atom_site_symmetry_multiplicity
_atom_site_Wyckoff_symbol
_atom_site_fract_x
_atom_site_fract_y
_atom_site_fract_z
_atom_site_U_iso_or_equiv
_atom_site_occupancy
Li1 Li1+ 4 c 0.1602(3) 0.25 0.1116(3) 0.0491(9) 1
B1 B3+ 4 c 0.30279(16) 0.25 0.42941(18) 0.0417(8) 1
H1 H1- 4 c 0.399(2) 0.25 0.5627(18) 0.056(4) 1
H2 H1- 4 c 0.3912(18) 0.25 0.290(2) 0.066(3) 1
H3 H1- 8 d 0.2138(13) 0.046(2) 0.4312(16) 0.060(3) 1
loop_
_atom_site_aniso_label
_atom_site_aniso_type_symbol
_atom_site_aniso_U_11
_atom_site_aniso_U_22
_atom_site_aniso_U_33
_atom_site_aniso_U_12
_atom_site_aniso_U_13
_atom_site_aniso_U_23
Li1 Li1+ 0.0409(12) 0.0563(14) 0.0502(14) 0. -0.0017(8) 0.
B1 B3+ 0.0391(10) 0.0445(12) 0.0415(11) 0. -0.0026(5) 0.
H1 H1- 0.059(9) 0.064(9) 0.045(8) 0. -0.010(7) 0.
H2 H1- 0.057(8) 0.100(9) 0.040(8) 0. 0.001(9) 0.
H3 H1- 0.069(7) 0.040(6) 0.070(10) 0.002(5) -0.004(4) -0.005(5)
#End of TTdata_186261-ICSD
#
