(C) 2022 by FIZ Karlsruhe - Leibniz Institute for Information Infrastructure.  All rights reserved.
data_251867-ICSD
_database_code_ICSD 251867
_audit_creation_date 2016-02-01
_chemical_name_common 'Yttrium tris(tetrahydridoborate) tetraammine'
_chemical_formula_structural 'Y (B H4)3 (N H3)4'
_chemical_formula_sum 'H24 B3 N4 Y1'
_exptl_crystal_density_diffrn 1.31
_diffrn_ambient_temperature 435.
_citation_title

;
Trends in syntheses, structures, and properties for three series of ammine
rare-earth metal borohydrides, M(BH4)3 * nNH3 (M = Y, Gd, and Dy)
;
loop_
_citation_id
_citation_journal_full
_citation_year
_citation_journal_volume
_citation_page_first
_citation_page_last
_citation_journal_id_ASTM
primary 'Inorganic Chemistry' 2015 54 7402 7414 INOCAJ
loop_
_citation_author_citation_id
_citation_author_name
primary 'Jepsen, Lars H.'
primary 'Ley, Morten B.'
primary 'Cerny, Radovan'
primary 'Lee, Young-Su'
primary 'Cho, Young Whan'
primary 'Ravnsbaek, Dorthe'
primary 'Besenbacher, Flemming'
primary 'Skibsted, Joergen'
primary 'Jensen, Torben R.'
_cell_length_a 12.3869(6)
_cell_length_b 7.1414(4)
_cell_length_c 11.5313(5)
_cell_angle_alpha 90.
_cell_angle_beta 90.
_cell_angle_gamma 90.
_cell_volume 1020.05
_cell_formula_units_Z 4
_space_group_name_H-M_alt 'P n a 21'
_space_group_IT_number 33
loop_
_space_group_symop_id
_space_group_symop_operation_xyz
1 'x+1/2, -y+1/2, z'
2 '-x+1/2, y+1/2, z+1/2'
3 '-x, -y, z+1/2'
4 'x, y, z'
loop_
_atom_type_symbol
_atom_type_oxidation_number
B3+ 3
H1- -1
H1+ 1
N3- -3
Y3+ 3
loop_
_atom_site_label
_atom_site_type_symbol
_atom_site_symmetry_multiplicity
_atom_site_Wyckoff_symbol
_atom_site_fract_x
_atom_site_fract_y
_atom_site_fract_z
_atom_site_B_iso_or_equiv
_atom_site_occupancy
B1 B3+ 4 a 0.3844 0.5024 0.1698 . 1.
B2 B3+ 4 a 0.1588 0.3451 0.3961 . 1.
B3 B3+ 4 a 0.3407 0.8456 0.443 . 1.
H1 H1- 4 a 0.3298 0.3577 0.1699 . 1.
H2 H1- 4 a 0.4376 0.5033 0.0808 . 1.
H3 H1- 4 a 0.3233 0.6402 0.1698 . 1.
H4 H1- 4 a 0.4377 0.5035 0.2587 . 1.
H5 H1- 4 a 0.2365 0.3993 0.338 . 1.
H6 H1- 4 a 0.074 0.3681 0.3421 . 1.
H7 H1- 4 a 0.1694 0.1806 0.419 . 1.
H8 H1- 4 a 0.1587 0.4443 0.4825 . 1.
H9 H1- 4 a 0.2632 0.8998 0.5015 . 1.
H10 H1- 4 a 0.4257 0.8684 0.4968 . 1.
H11 H1- 4 a 0.3299 0.6811 0.4201 . 1.
H12 H1- 4 a 0.3406 -0.0551 0.3567 . 1.
H13 H1+ 4 a 0.3065 0.5962 0.5964 . 1.
H14 H1+ 4 a 0.3063 0.5956 0.7421 . 1.
H15 H1+ 4 a 0.4219 0.5912 0.6694 . 1.
H16 H1+ 4 a 0.4236 -0.0349 0.2411 . 1.
H17 H1+ 4 a 0.4299 0.1631 0.1701 . 1.
H18 H1+ 4 a 0.4235 -0.0341 0.0981 . 1.
H19 H1+ 4 a 0.4161 0.1747 0.4588 . 1.
H20 H1+ 4 a 0.4434 0.3387 0.5531 . 1.
H21 H1+ 4 a 0.3189 0.3102 0.5018 . 1.
H22 H1+ 4 a 0.5837 0.8256 0.3805 . 1.
H23 H1+ 4 a 0.5567 0.6612 0.2863 . 1.
H24 H1+ 4 a 0.6811 0.6901 0.3378 . 1.
N1 N3- 4 a 0.3447 0.6434 0.6694 . 1.
N2 N3- 4 a 0.4581 0.0277 0.1697 . 1.
N3 N3- 4 a 0.3863 0.241 0.5308 . 1.
N4 N3- 4 a 0.6136 0.7591 0.3086 . 1.
Y1 Y3+ 4 a 0.3439 -0.0148 0.6697 . 1.
#End of TTdata_251867-ICSD
#
