(C) 2022 by FIZ Karlsruhe - Leibniz Institute for Information Infrastructure.  All rights reserved.
data_249756-ICSD
_database_code_ICSD 249756
_audit_creation_date 2009-02-01
_audit_update_record 2012-02-01
_chemical_name_common 'Lithium dodecahydrododecaborate'
_chemical_formula_structural 'Li2 (B12 H12)'
_chemical_formula_sum 'H12 B12 Li2'
_chemical_name_structure_type Li2B12H12
_exptl_crystal_density_diffrn 1.18
_diffrn_ambient_temperature 293.
_citation_title

;
Crystal structure of Li2 B12 H12: A possible intermediate species in the
decomposition of Li B H4
;
loop_
_citation_id
_citation_journal_full
_citation_year
_citation_journal_volume
_citation_page_first
_citation_page_last
_citation_journal_id_ASTM
primary 'Inorganic Chemistry' 2008 47 9757 9759 INOCAJ
loop_
_citation_author_citation_id
_citation_author_name
primary 'Her Jae-Hyuk'
primary 'Yousufuddin, M.'
primary 'Zhou Wei'
primary 'Jalisatgi, S.S.'
primary 'Kulleck, J.G.'
primary 'Zan, J.A.'
primary 'Hwang Song-Jong'
primary 'Bowman, R.C.jr.'
primary 'Udovic, T.J.'
_cell_length_a 9.57713(21)
_cell_length_b 9.57713(21)
_cell_length_c 9.57713(21)
_cell_angle_alpha 90.
_cell_angle_beta 90.
_cell_angle_gamma 90.
_cell_volume 878.43
_cell_formula_units_Z 4
_space_group_name_H-M_alt 'P a -3'
_space_group_IT_number 205
loop_
_space_group_symop_id
_space_group_symop_operation_xyz
1 '-z+1/2, x+1/2, y'
2 'z+1/2, x, -y+1/2'
3 'z, -x+1/2, y+1/2'
4 '-z, -x, -y'
5 'y, -z+1/2, x+1/2'
6 '-y+1/2, z+1/2, x'
7 'y+1/2, z, -x+1/2'
8 '-y, -z, -x'
9 'x+1/2, y, -z+1/2'
10 'x, -y+1/2, z+1/2'
11 '-x+1/2, y+1/2, z'
12 '-x, -y, -z'
13 'z+1/2, -x+1/2, -y'
14 '-z+1/2, -x, y+1/2'
15 '-z, x+1/2, -y+1/2'
16 'z, x, y'
17 '-y, z+1/2, -x+1/2'
18 'y+1/2, -z+1/2, -x'
19 '-y+1/2, -z, x+1/2'
20 'y, z, x'
21 '-x+1/2, -y, z+1/2'
22 '-x, y+1/2, -z+1/2'
23 'x+1/2, -y+1/2, -z'
24 'x, y, z'
loop_
_atom_type_symbol
_atom_type_oxidation_number
Li1+ 1
B1+ 0.8333
H1- -1
loop_
_atom_site_label
_atom_site_type_symbol
_atom_site_symmetry_multiplicity
_atom_site_Wyckoff_symbol
_atom_site_fract_x
_atom_site_fract_y
_atom_site_fract_z
_atom_site_B_iso_or_equiv
_atom_site_occupancy
Li1 Li1+ 8 c 0.64002(40) 0.64002(40) 0.64002(40) 4.66(20) 1
B1 B1+ 24 d -0.09125405 -0.09101656 0.1236277 1.981(72) 1
B2 B1+ 24 d -0.03597303 -0.03888101 -0.1705559 1.981(72) 1
H1 H1- 24 d -0.1555569 -0.155152 0.2107428 1.981(72) 1
H2 H1- 24 d -0.06132169 -0.0662788 -0.2907394 1.981(72) 1
#End of TTdata_249756-ICSD
#
