(C) 2022 by FIZ Karlsruhe - Leibniz Institute for Information Infrastructure.  All rights reserved.
data_185501-ICSD
_database_code_ICSD 185501
_audit_creation_date 2013-02-01
_audit_update_record 2015-02-01
_chemical_name_common 'Lithium cerium tris(tetradeuteridoborate) chloride'
_chemical_formula_structural 'Li Ce (B D4)3 Cl'
_chemical_formula_sum 'D12 B3 Ce1 Cl1 Li1'
_chemical_name_structure_type H12LiCeB3Cl
_exptl_crystal_density_diffrn 2.04
_diffrn_ambient_temperature 293.
_citation_title

;
Synthesis, crystal structure and thermal properties of the first mixed-metal
and anion-substituted rare earth borohydride Li Ce (B H4)3 Cl
;
loop_
_citation_id
_citation_journal_full
_citation_year
_citation_journal_volume
_citation_page_first
_citation_page_last
_citation_journal_id_ASTM
primary 'Journal of Physical Chemistry C' 2011 115 23591 23602 JPCCCK
loop_
_citation_author_citation_id
_citation_author_name
primary 'Frommen, C.'
primary 'Sorby, M.H.'
primary 'Ravindran, P.'
primary 'Vajeeston, P.'
primary 'Fjellvag, H.'
primary 'Hauback, B.C.'
_cell_length_a 11.5917(1)
_cell_length_b 11.5917(1)
_cell_length_c 11.5917(1)
_cell_angle_alpha 90.
_cell_angle_beta 90.
_cell_angle_gamma 90.
_cell_volume 1557.55
_cell_formula_units_Z 8
_space_group_name_H-M_alt 'I -4 3 m'
_space_group_IT_number 217
loop_
_space_group_symop_id
_space_group_symop_operation_xyz
1 '-z, -y, x'
2 '-y, -x, z'
3 '-x, -z, y'
4 '-z, -x, y'
5 '-y, -z, x'
6 '-x, -y, z'
7 '-z, y, -x'
8 '-y, x, -z'
9 '-x, z, -y'
10 '-z, x, -y'
11 '-y, z, -x'
12 '-x, y, -z'
13 'z, -y, -x'
14 'y, -x, -z'
15 'x, -z, -y'
16 'z, -x, -y'
17 'y, -z, -x'
18 'x, -y, -z'
19 'z, y, x'
20 'y, x, z'
21 'x, z, y'
22 'z, x, y'
23 'y, z, x'
24 'x, y, z'
25 '-z+1/2, -y+1/2, x+1/2'
26 '-y+1/2, -x+1/2, z+1/2'
27 '-x+1/2, -z+1/2, y+1/2'
28 '-z+1/2, -x+1/2, y+1/2'
29 '-y+1/2, -z+1/2, x+1/2'
30 '-x+1/2, -y+1/2, z+1/2'
31 '-z+1/2, y+1/2, -x+1/2'
32 '-y+1/2, x+1/2, -z+1/2'
33 '-x+1/2, z+1/2, -y+1/2'
34 '-z+1/2, x+1/2, -y+1/2'
35 '-y+1/2, z+1/2, -x+1/2'
36 '-x+1/2, y+1/2, -z+1/2'
37 'z+1/2, -y+1/2, -x+1/2'
38 'y+1/2, -x+1/2, -z+1/2'
39 'x+1/2, -z+1/2, -y+1/2'
40 'z+1/2, -x+1/2, -y+1/2'
41 'y+1/2, -z+1/2, -x+1/2'
42 'x+1/2, -y+1/2, -z+1/2'
43 'z+1/2, y+1/2, x+1/2'
44 'y+1/2, x+1/2, z+1/2'
45 'x+1/2, z+1/2, y+1/2'
46 'z+1/2, x+1/2, y+1/2'
47 'y+1/2, z+1/2, x+1/2'
48 'x+1/2, y+1/2, z+1/2'
loop_
_atom_type_symbol
_atom_type_oxidation_number
Ce3+ 3
B3+ 3
D1- -1
Cl1- -1
Li1+ 1
loop_
_atom_site_label
_atom_site_type_symbol
_atom_site_symmetry_multiplicity
_atom_site_Wyckoff_symbol
_atom_site_fract_x
_atom_site_fract_y
_atom_site_fract_z
_atom_site_B_iso_or_equiv
_atom_site_occupancy
Ce1 Ce3+ 8 c 0.8576(7) 0.8576(7) 0.8576(7) 1.27(2) 1.
B1 B3+ 24 g 0.1295(9) 0.6237(8) 0.6237(8) 1.34(2) 1.
D1 D1- 24 g 0.0273(15) 0.6163(12) 0.6163(12) 7.68(2) 1.
D2 D1- 48 h 0.1747(8) 0.6417(14) 0.5357(11) 7.68(2) 1.
D3 D1- 24 g 0.1548(13) 0.6888(12) 0.6888(12) 7.68(2) 1.
Cl1 Cl1- 8 c 0.8902(8) 0.1098(8) 0.8902(8) 1.02(2) 1.
Li1 Li1+ 6 b 0. 0.5 0.5 1.30(2) 1.
Li2 Li1+ 2 a 0. 0. 0. 1.30(2) 1.
#End of TTdata_185501-ICSD
#
