(C) 2022 by FIZ Karlsruhe - Leibniz Institute for Information Infrastructure.  All rights reserved.
data_194777-ICSD
_database_code_ICSD 194777
_audit_creation_date 2015-08-01
_chemical_name_common 'Dilithium decadeuterio-closo-decaborate'
_chemical_formula_structural 'Li2 (B10 D10)'
_chemical_formula_sum 'D10 B10 Li2'
_exptl_crystal_density_diffrn 1.11
_diffrn_ambient_temperature 295.
_citation_title 'Structural behavior of Li2 B10 H10'
loop_
_citation_id
_citation_journal_full
_citation_year
_citation_journal_volume
_citation_page_first
_citation_page_last
_citation_journal_id_ASTM
primary 'Journal of Physical Chemistry C' 2015 119 6481 6487 JPCCCK
loop_
_citation_author_citation_id
_citation_author_name
primary 'Wu, Hui'
primary 'Tang, Wan Si'
primary 'Stavila, Vitalie'
primary 'Zhou, Wei'
primary 'Rush, John J.'
primary 'Udovic, Terrence J.'
_cell_length_a 7.03631
_cell_length_b 7.03631
_cell_length_c 14.9154(6)
_cell_angle_alpha 90.
_cell_angle_beta 90.
_cell_angle_gamma 120.
_cell_volume 639.52
_cell_formula_units_Z 3
_space_group_name_H-M_alt 'P 64 2 2'
_space_group_IT_number 181
loop_
_space_group_symop_id
_space_group_symop_operation_xyz
1 'x, x-y, -z+2/3'
2 '-x+y, y, -z'
3 '-y, -x, -z+1/3'
4 '-x, -x+y, -z+2/3'
5 'x-y, -y, -z'
6 'y, x, -z+1/3'
7 'x-y, x, z+2/3'
8 'y, -x+y, z+1/3'
9 '-x, -y, z'
10 '-x+y, -x, z+2/3'
11 '-y, x-y, z+1/3'
12 'x, y, z'
loop_
_atom_type_symbol
_atom_type_oxidation_number
Li0+ 0
B0+ 0
D0+ 0
loop_
_atom_site_label
_atom_site_type_symbol
_atom_site_symmetry_multiplicity
_atom_site_Wyckoff_symbol
_atom_site_fract_x
_atom_site_fract_y
_atom_site_fract_z
_atom_site_U_iso_or_equiv
_atom_site_occupancy
Li1 Li0+ 6 f 0.5 0.5 0.4217(12) 0.042(4) 1.
B1 B0+ 6 i 0.6960(4) 0.34800(22) 0.33333 0.0207(4) 1.
B2 B0+ 12 k 0.87597(31) 0.60812(32) 0.36624(15) 0.0207(4) 1.
B3 B0+ 12 k 0.87768(30) 0.36929(30) 0.41359(14) 0.0207(4) 1.
D1 D0+ 6 i 0.4998(7) 0.24990(35) 0.33333 0.0373(6) 1.
D2 D0+ 12 k 0.8193(6) 0.7314(6) 0.39601(26) 0.0373(6) 1.
D3 D0+ 12 k 0.8071(6) 0.2701(6) 0.48235(23) 0.0373(6) 1.
#End of TTdata_194777-ICSD
#
