(C) 2022 by FIZ Karlsruhe - Leibniz Institute for Information Infrastructure.  All rights reserved.
data_245569-ICSD
_database_code_ICSD 245569
_audit_creation_date 2008-02-01
_audit_update_record 2013-02-01
_chemical_name_common 'Lithium tetrahydridoborate'
_chemical_formula_structural 'Li (B H4)'
_chemical_formula_sum 'H4 B1 Li1'
_chemical_name_structure_type LiBH4(hP12)
_exptl_crystal_density_diffrn 0.66
_diffrn_ambient_temperature 400.
_citation_title

;
Structure and vibrational dynamics of isotypically labeled lithium borohydride
using neutron diffraction and spectroscopy
;
loop_
_citation_id
_citation_journal_full
_citation_year
_citation_journal_volume
_citation_page_first
_citation_page_last
_citation_journal_id_ASTM
primary 'Journal of Solid State Chemistry' 2007 180 1298 1305 JSSCBI
loop_
_citation_author_citation_id
_citation_author_name
primary 'Hartman, M.R.'
primary 'Rush, J.J.'
primary 'Udovic, T.J.'
primary 'Bowman, R.C.jr.'
primary 'Hwang Song-Jong'
_cell_length_a 4.2667(2)
_cell_length_b 4.2667(2)
_cell_length_c 6.9223(8)
_cell_angle_alpha 90.
_cell_angle_beta 90.
_cell_angle_gamma 120.
_cell_volume 109.14
_cell_formula_units_Z 2
_space_group_name_H-M_alt 'P 63 m c'
_space_group_IT_number 186
loop_
_space_group_symop_id
_space_group_symop_operation_xyz
1 '-x, -x+y, z+1/2'
2 'x-y, -y, z+1/2'
3 'y, x, z+1/2'
4 'x-y, x, z+1/2'
5 'y, -x+y, z+1/2'
6 '-x, -y, z+1/2'
7 'x, x-y, z'
8 '-x+y, y, z'
9 '-y, -x, z'
10 '-x+y, -x, z'
11 '-y, x-y, z'
12 'x, y, z'
loop_
_atom_type_symbol
_atom_type_oxidation_number
Li1+ 1
B3+ 3
H1- -1
loop_
_atom_site_label
_atom_site_type_symbol
_atom_site_symmetry_multiplicity
_atom_site_Wyckoff_symbol
_atom_site_fract_x
_atom_site_fract_y
_atom_site_fract_z
_atom_site_B_iso_or_equiv
_atom_site_occupancy
Li1 Li1+ 2 b 0.3333 0.6667 0 . 1.
B1 B3+ 2 b 0.3333 0.6667 0.5756(40) . 1.
H1 H1- 2 b 0.3333 0.6667 0.4366(104) . 1.
H2 H1- 6 c 0.2053(18) 0.4106(36) 0.6321(68) . 1.
loop_
_atom_site_aniso_label
_atom_site_aniso_type_symbol
_atom_site_aniso_U_11
_atom_site_aniso_U_22
_atom_site_aniso_U_33
_atom_site_aniso_U_12
_atom_site_aniso_U_13
_atom_site_aniso_U_23
Li1 Li1+ 0.061(10) 0.061(10) 0.061(44) 0.031(5) 0. 0.
B1 B3+ 0.068(4) 0.068(4) 0.15(3) 0.034(2) 0. 0.
H1 H1- 0.64(11) 0.64(11) 0.074(46) 0.32(5) 0. 0.
H2 H1- 0.16(1) 0.092(9) 0.43(4) 0.046(4) 0.064(10) 0.13(2)
#End of TTdata_245569-ICSD
#
