(C) 2022 by FIZ Karlsruhe - Leibniz Institute for Information Infrastructure.  All rights reserved.
data_166667-ICSD
_database_code_ICSD 166667
_audit_creation_date 2010-08-01
_chemical_name_common 'Disodium amide tetrahydridoborate - beta'
_chemical_formula_structural 'Na2 (N H2) (B H4)'
_chemical_formula_sum 'H6 B1 N1 Na2'
_exptl_crystal_density_diffrn 1.22
_citation_title

;
alpha- and beta-Na2 (B H4) (N H2): two modifications of a complex hydride in
the system Na N H2 - Na B H4; syntheses, crystal structures, thermal analyses,
mass and vibrational spectra
;
loop_
_citation_id
_citation_journal_full
_citation_year
_citation_journal_volume
_citation_page_first
_citation_page_last
_citation_journal_id_ASTM
primary 'Journal of Alloys and Compounds' 2010 491 98 105 JALCEU
loop_
_citation_author_citation_id
_citation_author_name
primary 'Somer, M.'
primary 'Acar, S.'
primary 'Koz, C.'
primary 'Kokal, I.'
primary 'Hoehn, P.'
primary 'Cardoso-Gil, R.'
primary 'Aydemir, U.'
primary 'Akselrud, L.'
_cell_length_a 6.5384(2)
_cell_length_b 6.4960(1)
_cell_length_c 9.8512(2)
_cell_angle_alpha 90.
_cell_angle_beta 90.
_cell_angle_gamma 90.
_cell_volume 418.41
_cell_formula_units_Z 4
_space_group_name_H-M_alt 'P b c m'
_space_group_IT_number 57
loop_
_space_group_symop_id
_space_group_symop_operation_xyz
1 'x, -y+1/2, z+1/2'
2 '-x, y+1/2, z'
3 'x, y, -z+1/2'
4 '-x, -y, -z'
5 '-x, y+1/2, -z+1/2'
6 'x, -y+1/2, -z'
7 '-x, -y, z+1/2'
8 'x, y, z'
loop_
_atom_type_symbol
_atom_type_oxidation_number
Na1+ 1
N3- -3
B3+ 3
H1- -1
H1+ 1
loop_
_atom_site_label
_atom_site_type_symbol
_atom_site_symmetry_multiplicity
_atom_site_Wyckoff_symbol
_atom_site_fract_x
_atom_site_fract_y
_atom_site_fract_z
_atom_site_U_iso_or_equiv
_atom_site_occupancy
Na1 Na1+ 4 c 0.7118(2) 0.25 0 0.0511(7) 1.
Na2 Na1+ 4 d 0.0618(2) 0.0625(2) 0.25 0.0590(7) 1.
N1 N3- 4 d 0.7473(3) 0.2488(3) 0.25 0.0194(11) 1.
B1 B3+ 4 c 0.2156(5) 0.25 0 0.035(2) 1.
loop_
_atom_site_aniso_label
_atom_site_aniso_type_symbol
_atom_site_aniso_U_11
_atom_site_aniso_U_22
_atom_site_aniso_U_33
_atom_site_aniso_U_12
_atom_site_aniso_U_13
_atom_site_aniso_U_23
Na1 Na1+ 0.0662(14) 0.0527(13) 0.0344(10) 0. 0. -0.0049(12)
Na2 Na1+ 0.0691(13) 0.0608(13) 0.0471(12) -0.0187(12) 0. 0.
N1 N3- 0.006(2) 0.029(2) 0.023(2) 0.002(3) 0. 0.
B1 B3+ 0.061(4) 0.024(3) 0.021(3) 0. 0. 0.017(3)
#End of TTdata_166667-ICSD
#
