(C) 2022 by FIZ Karlsruhe - Leibniz Institute for Information Infrastructure.  All rights reserved.
data_239763-ICSD
_database_code_ICSD 239763
_audit_creation_date 2016-08-01
_chemical_name_common 'Lithium tetrahydridoborate'
_chemical_formula_structural 'Li (B H4)'
_chemical_formula_sum 'H4 B1 Li1'
_chemical_name_structure_type LiBH4
_exptl_crystal_density_diffrn 0.68
_citation_title

;
Solid state synthesis, structural characterization and ionic conductivity of
bimetallic alkali-metal yttrium borohydrides MY(BH4)4 (M = Li and Na)
;
loop_
_citation_id
_citation_journal_full
_citation_year
_citation_journal_volume
_citation_page_first
_citation_page_last
_citation_journal_id_ASTM
primary
'Journal of Materials Chemistry A: Materials for Energy and Sustainability' 2016 4 8793 8802 JMCAET
loop_
_citation_author_citation_id
_citation_author_name
primary 'Roedern, Elsa'
primary 'Lee, Young-Su'
primary 'Ley, Morten B.'
primary 'Park, Kiho'
primary 'Cho, Young Whan'
primary 'Skibsted, Joergen'
primary 'Jensen, Torben R.'
_cell_length_a 7.130(2)
_cell_length_b 4.3978(12)
_cell_length_c 6.806(2)
_cell_angle_alpha 90.
_cell_angle_beta 90.
_cell_angle_gamma 90.
_cell_volume 213.41
_cell_formula_units_Z 4
_space_group_name_H-M_alt 'P n m a'
_space_group_IT_number 62
loop_
_space_group_symop_id
_space_group_symop_operation_xyz
1 'x+1/2, y, -z+1/2'
2 'x, -y+1/2, z'
3 '-x+1/2, y+1/2, z+1/2'
4 '-x, -y, -z'
5 '-x+1/2, -y, z+1/2'
6 '-x, y+1/2, -z'
7 'x+1/2, -y+1/2, -z+1/2'
8 'x, y, z'
loop_
_atom_type_symbol
_atom_type_oxidation_number
Li1+ 1
B3+ 3
H1- -1
loop_
_atom_site_label
_atom_site_type_symbol
_atom_site_symmetry_multiplicity
_atom_site_Wyckoff_symbol
_atom_site_fract_x
_atom_site_fract_y
_atom_site_fract_z
_atom_site_U_iso_or_equiv
_atom_site_occupancy
Li1 Li1+ 4 c 0.1568 0.25 0.1015 0.038 1.
B1 B3+ 4 c 0.304 0.25 0.4305 0.038 1.
H1 H1- 4 c 0.9 0.25 0.956 0.10132 1.
H2 H1- 4 c 0.404 0.25 0.28 0.10132 1.
H3 H1- 8 d 0.172 0.054 0.428 0.10132 1.
#End of TTdata_239763-ICSD
#
