(C) 2022 by FIZ Karlsruhe - Leibniz Institute for Information Infrastructure.  All rights reserved.
data_279582-ICSD
_database_code_ICSD 279582
_audit_creation_date 2002-10-01
_chemical_name_common 'Aluminium phosphate(V) - tridymite'
_chemical_formula_structural 'Al (P O4)'
_chemical_formula_sum 'Al1 O4 P1'
_chemical_name_structure_type LiBH4(hP12)
_exptl_crystal_density_diffrn 2.16
_diffrn_ambient_temperature 593.
_citation_title
'Hexagonal high-temperature form of AlPO4 tridymite, from X-ray powder data'
loop_
_citation_id
_citation_journal_full
_citation_year
_citation_journal_volume
_citation_page_first
_citation_page_last
_citation_journal_id_ASTM
primary 'Acta Crystallographica, Section C: Crystal Structure Communications'
2001 57 665 667 ACSCEE
loop_
_citation_author_citation_id
_citation_author_name
primary 'Graetsch, H.A.'
_cell_length_a 5.0976(3)
_cell_length_b 5.0976(3)
_cell_length_c 8.3441(4)
_cell_angle_alpha 90.
_cell_angle_beta 90.
_cell_angle_gamma 120.
_cell_volume 187.78
_cell_formula_units_Z 2
_space_group_name_H-M_alt 'P 63 m c'
_space_group_IT_number 186
loop_
_space_group_symop_id
_space_group_symop_operation_xyz
1 '-x, -x+y, z+1/2'
2 'x-y, -y, z+1/2'
3 'y, x, z+1/2'
4 'x-y, x, z+1/2'
5 'y, -x+y, z+1/2'
6 '-x, -y, z+1/2'
7 'x, x-y, z'
8 '-x+y, y, z'
9 '-y, -x, z'
10 '-x+y, -x, z'
11 '-y, x-y, z'
12 'x, y, z'
loop_
_atom_type_symbol
_atom_type_oxidation_number
Al3+ 3
P5+ 5
O2- -2
loop_
_atom_site_label
_atom_site_type_symbol
_atom_site_symmetry_multiplicity
_atom_site_Wyckoff_symbol
_atom_site_fract_x
_atom_site_fract_y
_atom_site_fract_z
_atom_site_B_iso_or_equiv
_atom_site_occupancy
Al1 Al3+ 2 b 0.33333 0.66667 0.0625 . 1.
P1 P5+ 2 b 0.33333 0.66667 0.4365(4) . 1.
O1 O2- 2 b 0.33333 0.66667 0.2616(5) . 1.
O2 O2- 6 c 0.5109(3) 0.4891(3) -.0046(6) . 1.
loop_
_atom_site_aniso_label
_atom_site_aniso_type_symbol
_atom_site_aniso_U_11
_atom_site_aniso_U_22
_atom_site_aniso_U_33
_atom_site_aniso_U_12
_atom_site_aniso_U_13
_atom_site_aniso_U_23
Al1 Al3+ 0.069(5) 0.069(5) 0.065(8) 0.035(3) 0 0
P1 P5+ 0.047(3) 0.047(3) 0.048(6) 0.024(2) 0 0
O1 O2- 0.163(5) 0.163(5) 0.036(5) 0.081(3) 0 0
O2 O2- 0.165(4) 0.165(4) 0.136(5) 0.129(4) 0.021(2) -.021(2)
#End of TTdata_279582-ICSD
#
