(C) 2022 by FIZ Karlsruhe - Leibniz Institute for Information Infrastructure.  All rights reserved.
data_166666-ICSD
_database_code_ICSD 166666
_audit_creation_date 2010-08-01
_chemical_name_common 'Disodium amide tetrahydridoborate - alpha'
_chemical_formula_structural 'Na2 (N H2) (B H4)'
_chemical_formula_sum 'H6 B1 N1 Na2'
_exptl_crystal_density_diffrn 1.23
_citation_title

;
alpha- and beta-Na2 (B H4) (N H2): two modifications of a complex hydride in
the system Na N H2 - Na B H4; syntheses, crystal structures, thermal analyses,
mass and vibrational spectra
;
loop_
_citation_id
_citation_journal_full
_citation_year
_citation_journal_volume
_citation_page_first
_citation_page_last
_citation_journal_id_ASTM
primary 'Journal of Alloys and Compounds' 2010 491 98 105 JALCEU
loop_
_citation_author_citation_id
_citation_author_name
primary 'Somer, M.'
primary 'Acar, S.'
primary 'Koz, C.'
primary 'Kokal, I.'
primary 'Hoehn, P.'
primary 'Cardoso-Gil, R.'
primary 'Aydemir, U.'
primary 'Akselrud, L.'
_cell_length_a 4.6950(1)
_cell_length_b 4.6950(1)
_cell_length_c 4.6950(1)
_cell_angle_alpha 90.
_cell_angle_beta 90.
_cell_angle_gamma 90.
_cell_volume 103.49
_cell_formula_units_Z 1
_space_group_name_H-M_alt 'P m -3 m'
_space_group_IT_number 221
loop_
_space_group_symop_id
_space_group_symop_operation_xyz
1 'z, y, -x'
2 'y, x, -z'
3 'x, z, -y'
4 'z, x, -y'
5 'y, z, -x'
6 'x, y, -z'
7 'z, -y, x'
8 'y, -x, z'
9 'x, -z, y'
10 'z, -x, y'
11 'y, -z, x'
12 'x, -y, z'
13 '-z, y, x'
14 '-y, x, z'
15 '-x, z, y'
16 '-z, x, y'
17 '-y, z, x'
18 '-x, y, z'
19 '-z, -y, -x'
20 '-y, -x, -z'
21 '-x, -z, -y'
22 '-z, -x, -y'
23 '-y, -z, -x'
24 '-x, -y, -z'
25 '-z, -y, x'
26 '-y, -x, z'
27 '-x, -z, y'
28 '-z, -x, y'
29 '-y, -z, x'
30 '-x, -y, z'
31 '-z, y, -x'
32 '-y, x, -z'
33 '-x, z, -y'
34 '-z, x, -y'
35 '-y, z, -x'
36 '-x, y, -z'
37 'z, -y, -x'
38 'y, -x, -z'
39 'x, -z, -y'
40 'z, -x, -y'
41 'y, -z, -x'
42 'x, -y, -z'
43 'z, y, x'
44 'y, x, z'
45 'x, z, y'
46 'z, x, y'
47 'y, z, x'
48 'x, y, z'
loop_
_atom_type_symbol
_atom_type_oxidation_number
Na1+ 1
N3- -3
B3+ 3
H1- -1
H1+ 1
loop_
_atom_site_label
_atom_site_type_symbol
_atom_site_symmetry_multiplicity
_atom_site_Wyckoff_symbol
_atom_site_fract_x
_atom_site_fract_y
_atom_site_fract_z
_atom_site_U_iso_or_equiv
_atom_site_occupancy
Na1 Na1+ 3 c 0 0.5 0.5 0.063(1) 0.667
N1 N3- 1 b 0.5 0.5 0.5 0.016(1) 1.
B1 B3+ 1 a 0 0 0 0.023(1) 1.
H1 H1- 8 g 0.144(2) 0.144(2) 0.144(2) 0.012(1) 0.5
#End of TTdata_166666-ICSD
#
