(C) 2022 by FIZ Karlsruhe - Leibniz Institute for Information Infrastructure.  All rights reserved.
data_196138-ICSD
_database_code_ICSD 196138
_audit_creation_date 2016-02-01
_chemical_name_common 'Lithium tetradeuteridoborate bromide (1/0.62/0.38)'
_chemical_formula_structural 'Li (B D4)0.62 Br0.38'
_chemical_formula_sum 'D2.48 B0.62 Br0.38 Li1'
_exptl_crystal_density_diffrn 1.56
_diffrn_ambient_temperature 393.
_citation_title

;
Phase behavior in the Li B H4 - Li Br system and structure of the
anion-stabilized fast ionic, high temperature phase
;
loop_
_citation_id
_citation_journal_full
_citation_year
_citation_journal_volume
_citation_page_first
_citation_page_last
_citation_journal_id_ASTM
primary 'Chemistry of Materials' 2015 27 7780 7787 CMATEX
loop_
_citation_author_citation_id
_citation_author_name
primary 'Cascallana-Matias, Irene'
primary 'Keen, David A.'
primary 'Cussen, Edmund J.'
primary 'Gregory, Duncan H.'
_cell_length_a 4.2234(3)
_cell_length_b 4.2234(3)
_cell_length_c 6.7433(4)
_cell_angle_alpha 90.
_cell_angle_beta 90.
_cell_angle_gamma 120.
_cell_volume 104.17
_cell_formula_units_Z 2
_space_group_name_H-M_alt 'P 63 m c'
_space_group_IT_number 186
loop_
_space_group_symop_id
_space_group_symop_operation_xyz
1 '-x, -x+y, z+1/2'
2 'x-y, -y, z+1/2'
3 'y, x, z+1/2'
4 'x-y, x, z+1/2'
5 'y, -x+y, z+1/2'
6 '-x, -y, z+1/2'
7 'x, x-y, z'
8 '-x+y, y, z'
9 '-y, -x, z'
10 '-x+y, -x, z'
11 '-y, x-y, z'
12 'x, y, z'
loop_
_atom_type_symbol
_atom_type_oxidation_number
Li1+ 1
B3+ 3
Br1- -1
D1- -1
loop_
_atom_site_label
_atom_site_type_symbol
_atom_site_symmetry_multiplicity
_atom_site_Wyckoff_symbol
_atom_site_fract_x
_atom_site_fract_y
_atom_site_fract_z
_atom_site_U_iso_or_equiv
_atom_site_occupancy
Li1 Li1+ 2 b 0.6667 0.3333 0.60(1) 0.042(5) 0.22(1)
Li2 Li1+ 2 b 0.6667 0.3333 0.789 0.042(5) 0.78(1)
B1 B3+ 2 b 0.6667 0.3333 0.226(2) 0.031(2) 0.617
Br1 Br1- 2 b 0.6667 0.3333 0.179(2) 0.031(2) 0.383
D1 D1- 2 b 0.6667 0.3333 0.028 0.074(3) 0.469(3)
D2 D1- 6 c 0.817(1) 0.182(1) 0.262(2) 0.074(3) 0.469(3)
D3 D1- 6 c 0.549 0.098 0.087 0.074(3) 0.147(3)
D4 D1- 2 b 0.6667 0.3333 0.399(8) 0.074(3) 0.147(3)
#End of TTdata_196138-ICSD
#
