(C) 2022 by FIZ Karlsruhe - Leibniz Institute for Information Infrastructure.  All rights reserved.
data_93050-ICSD
_database_code_ICSD 93050
_audit_creation_date 2003-04-01
_audit_update_record 2011-02-01
_chemical_name_common 'Dihydrogengallium di-mue-hydrido-borane'
_chemical_formula_structural '(H2 Ga) H2 (B H2)'
_chemical_formula_sum 'H6 B1 Ga1'
_exptl_crystal_density_diffrn 1.73
_diffrn_ambient_temperature 110.
_citation_title

;
Structure of the gaseous molecule H2 Ga (mue-H)2 B H2 as as determined by
vibrational, electron diffraction, and ab initio studies, and structure of the
crystalline solid at 110 K as determined by X-ray diffraction
;
loop_
_citation_id
_citation_journal_full
_citation_year
_citation_journal_volume
_citation_page_first
_citation_page_last
_citation_journal_id_ASTM
primary 'Inorganic Chemistry' 2001 40 3484 3497 INOCAJ
loop_
_citation_author_citation_id
_citation_author_name
primary 'Downs, A.J.'
primary 'Greene, T.M.'
primary 'Johnsen, E.'
primary 'Brain, P.T.'
primary 'Morrison, C.A.'
primary 'Parsons, S.'
primary 'Pulham, C.R.'
primary 'Rankin, D.W.H.'
primary 'Aarset, K.'
primary 'Mills, I.M.'
primary 'Page, E.M.'
primary 'Rice, D.A.'
_cell_length_a 10.036(3)
_cell_length_b 8.932(3)
_cell_length_c 11.294(4)
_cell_angle_alpha 90
_cell_angle_beta 100.57(2)
_cell_angle_gamma 90
_cell_volume 995.23
_cell_formula_units_Z 12
_space_group_name_H-M_alt 'I 1 2/a 1'
_space_group_IT_number 15
loop_
_space_group_symop_id
_space_group_symop_operation_xyz
1 'x+1/2, -y, z'
2 '-x, -y, -z'
3 '-x+1/2, y, -z'
4 'x, y, z'
5 'x, -y+1/2, z+1/2'
6 '-x+1/2, -y+1/2, -z+1/2'
7 '-x, y+1/2, -z+1/2'
8 'x+1/2, y+1/2, z+1/2'
loop_
_atom_type_symbol
_atom_type_oxidation_number
Ga3+ 3
B3+ 3
H1- -1
loop_
_atom_site_label
_atom_site_type_symbol
_atom_site_symmetry_multiplicity
_atom_site_Wyckoff_symbol
_atom_site_fract_x
_atom_site_fract_y
_atom_site_fract_z
_atom_site_B_iso_or_equiv
_atom_site_occupancy
Ga1 Ga3+ 8 f 0.5954 0.3849 0.3089 . 1.
Ga2 Ga3+ 4 e 0.75 0.6868 0 . 1.
B1 B3+ 8 f 0.64 0.5664 0.1524 . 1.
B2 B3+ 4 e 0.75 0.3313 0.5 . 1.
H1 H1- 8 f 0.4831 0.456 0.3419 . 1.
H2 H1- 8 f 0.6107 0.2496 0.2488 . 1.
H3 H1- 8 f 0.6295 0.7346 0.9258 . 1.
H4 H1- 8 f 0.6392 0.6856 0.1718 . 1.
H5 H1- 8 f 0.5412 0.5198 0.1411 . 1.
H6 H1- 8 f 0.7154 0.5297 0.236 . 1.
H7 H1- 8 f 0.6968 0.5234 0.0818 . 1.
H8 H1- 8 f 0.6611 0.284 0.4895 . 1.
H9 H1- 8 f 0.7568 0.4126 0.4196 . 1.
#End of TTdata_93050-ICSD
#
