(C) 2022 by FIZ Karlsruhe - Leibniz Institute for Information Infrastructure.  All rights reserved.
data_255839-ICSD
_database_code_ICSD 255839
_audit_creation_date 2018-08-01
_chemical_name_common 'Lithium hydridoborate'
_chemical_formula_structural 'Li B H4'
_chemical_formula_sum 'H4 B1 Li1'
_chemical_name_structure_type LiBH4
_exptl_crystal_density_diffrn 0.68
_diffrn_ambient_temperature 100.
_citation_title

;
muCHILL: a lightweight, modular system for handling crystalline samples at low
temperatures under inert conditions
;
loop_
_citation_id
_citation_journal_full
_citation_year
_citation_journal_volume
_citation_page_first
_citation_page_last
_citation_journal_id_ASTM
primary 'Journal of Applied Crystallography' 2018 51 541 548 JACGAR
loop_
_citation_author_citation_id
_citation_author_name
primary 'Solar, Michael'
primary 'Trapp, Nils'
_cell_length_a 7.1431(6)
_cell_length_b 4.4159(4)
_cell_length_c 6.7027(6)
_cell_angle_alpha 90
_cell_angle_beta 90
_cell_angle_gamma 90
_cell_volume 211.42
_cell_formula_units_Z 4
_space_group_name_H-M_alt 'P n m a'
_space_group_IT_number 62
loop_
_space_group_symop_id
_space_group_symop_operation_xyz
1 'x+1/2, y, -z+1/2'
2 'x, -y+1/2, z'
3 '-x+1/2, y+1/2, z+1/2'
4 '-x, -y, -z'
5 '-x+1/2, -y, z+1/2'
6 '-x, y+1/2, -z'
7 'x+1/2, -y+1/2, -z+1/2'
8 'x, y, z'
loop_
_atom_type_symbol
_atom_type_oxidation_number
B3+ 3
H1- -1
Li1+ 1
loop_
_atom_site_label
_atom_site_type_symbol
_atom_site_symmetry_multiplicity
_atom_site_Wyckoff_symbol
_atom_site_fract_x
_atom_site_fract_y
_atom_site_fract_z
_atom_site_U_iso_or_equiv
_atom_site_occupancy
B1 B3+ 4 c 0.80459(19) 0.75 0.57046(18) 0.0261(7) 1
H1 H1- 8 d 0.7139(16) 0.546(3) 0.5701(17) 0.038(3) 1
H2 H1- 4 c 0.896(2) 0.75 0.436(2) 0.038(4) 1
H3 H1- 4 c 0.892(2) 0.75 0.712(3) 0.044(4) 1
Li1 Li1+ 4 c 0.6589(3) 0.75 0.8874(3) 0.0325(8) 1
loop_
_atom_site_aniso_label
_atom_site_aniso_type_symbol
_atom_site_aniso_U_11
_atom_site_aniso_U_22
_atom_site_aniso_U_33
_atom_site_aniso_U_12
_atom_site_aniso_U_13
_atom_site_aniso_U_23
B1 B3+ 0.0300(9) 0.0300(10) 0.0184(10) 0. 0.0010(5) 0.
Li1 Li1+ 0.0343(12) 0.0374(13) 0.0258(12) 0. 0.0005(9) 0.
#End of TTdata_255839-ICSD
#
