(C) 2022 by FIZ Karlsruhe - Leibniz Institute for Information Infrastructure.  All rights reserved.
data_171352-ICSD
_database_code_ICSD 171352
_audit_creation_date 2006-10-01
_chemical_name_common 'Tetralithium borohydride triamide'
_chemical_formula_structural 'Li4 (B H4) (N H2)3'
_chemical_formula_sum 'H10 B1 Li4 N3'
_chemical_name_structure_type Li4(NH2)3BH4
_exptl_crystal_density_diffrn 0.99
_citation_title

;
On the composition and crystal structure of the new quaternary hydride phase
Li4 B N3 H10
;
loop_
_citation_id
_citation_journal_full
_citation_year
_citation_journal_volume
_citation_page_first
_citation_page_last
_citation_journal_id_ASTM
primary 'Inorganic Chemistry' 2006 45 1433 1435 INOCAJ
loop_
_citation_author_citation_id
_citation_author_name
primary 'Filinchuk, Y.E.'
primary 'Yvon, K.'
primary 'Meisner, G.P.'
primary 'Pinkerton, F.E.'
primary 'Balogh, M.P.'
_cell_length_a 10.6794(10)
_cell_length_b 10.6794(10)
_cell_length_c 10.6794(10)
_cell_angle_alpha 90.
_cell_angle_beta 90.
_cell_angle_gamma 90.
_cell_volume 1217.98
_cell_formula_units_Z 8
_space_group_name_H-M_alt 'I 21 3'
_space_group_IT_number 199
loop_
_space_group_symop_id
_space_group_symop_operation_xyz
1 '-z+1/2, -x, y+1/2'
2 '-y+1/2, -z, x+1/2'
3 '-x+1/2, -y, z+1/2'
4 '-z, x+1/2, -y+1/2'
5 '-y, z+1/2, -x+1/2'
6 '-x, y+1/2, -z+1/2'
7 'z+1/2, -x+1/2, -y'
8 'y+1/2, -z+1/2, -x'
9 'x+1/2, -y+1/2, -z'
10 'z, x, y'
11 'y, z, x'
12 'x, y, z'
13 '-z, -x+1/2, y'
14 '-y, -z+1/2, x'
15 '-x, -y+1/2, z'
16 '-z+1/2, x, -y'
17 '-y+1/2, z, -x'
18 '-x+1/2, y, -z'
19 'z, -x, -y+1/2'
20 'y, -z, -x+1/2'
21 'x, -y, -z+1/2'
22 'z+1/2, x+1/2, y+1/2'
23 'y+1/2, z+1/2, x+1/2'
24 'x+1/2, y+1/2, z+1/2'
loop_
_atom_type_symbol
_atom_type_oxidation_number
N3- -3
B3+ 3
Li1+ 1
H1+ 1
H1- -1
loop_
_atom_site_label
_atom_site_type_symbol
_atom_site_symmetry_multiplicity
_atom_site_Wyckoff_symbol
_atom_site_fract_x
_atom_site_fract_y
_atom_site_fract_z
_atom_site_U_iso_or_equiv
_atom_site_occupancy
N1 N3- 24 c 0.11536(7) 0.35931(7) 0.40525(9) 0.0264(3) 1
B1 B3+ 8 a 0.11360(10) 0.11360(10) 0.11360(10) 0.0298(4) 1
Li1 Li1+ 12 b 0.2871(2) 0. 0.25 0.0402(6) 1
Li2 Li1+ 12 b 0.5237(2) 0. 0.25 0.0306(6) 1
Li3 Li1+ 8 a 0.48330(16) 0.48330(16) 0.48330(16) 0.0305(7) 1
H1 H1+ 24 c 0.1751(17) 0.3100(16) 0.3969(16) 0.059(4) 1
H2 H1+ 24 c 0.1145(14) 0.4051(14) 0.3391(16) 0.049(4) 1
H3 H1- 24 c 0.0123(14) 0.1194(14) 0.1460(12) 0.057(4) 1
H4 H1- 8 a 0.1721(14) 0.1721(14) 0.1721(14) 0.049(7) 1
loop_
_atom_site_aniso_label
_atom_site_aniso_type_symbol
_atom_site_aniso_U_11
_atom_site_aniso_U_22
_atom_site_aniso_U_33
_atom_site_aniso_U_12
_atom_site_aniso_U_13
_atom_site_aniso_U_23
N1 N3- 0.0268(5) 0.0259(4) 0.0264(5) -0.0008(3) 0.0015(3) -0.0028(3)
B1 B3+ 0.0298(4) 0.0298(4) 0.0298(4) -0.0015(4) -0.0015(4) -0.0015(4)
Li1 Li1+ 0.0294(12) 0.0427(13) 0.0486(15) 0. 0. -0.0155(13)
Li2 Li1+ 0.0289(11) 0.0365(13) 0.0265(10) 0. 0. 0.0028(10)
Li3 Li1+ 0.0305(7) 0.0305(7) 0.0305(7) 0.0004(6) 0.0004(6) 0.0004(6)
#End of TTdata_171352-ICSD
#
