(C) 2022 by FIZ Karlsruhe - Leibniz Institute for Information Infrastructure.  All rights reserved.
data_237566-ICSD
_database_code_ICSD 237566
_audit_creation_date 2015-02-01
_chemical_name_common 'Lithium magnesium zinc borohydride (3/1/5/15)'
_chemical_formula_structural 'Li3 Mg Zn5 (B H4)15'
_chemical_formula_sum 'H60 B15 Li3 Mg1 Zn5'
_exptl_crystal_density_diffrn 1.09
_citation_title

;
Trimetallic borohydride Li3 M Zn5 (B H4)15 (M = Mg, Mn) containing two weakly
interconnected frameworks
;
loop_
_citation_id
_citation_journal_full
_citation_year
_citation_journal_volume
_citation_page_first
_citation_page_last
_citation_journal_id_ASTM
primary 'Inorganic Chemistry' 2013 52 9941 9947 INOCAJ
loop_
_citation_author_citation_id
_citation_author_name
primary 'Cerny, Radovan'
primary 'Schouwink, Pascal'
primary 'Sadikin, Yolanda'
primary 'Stare, Katarina'
primary "Smrcok, L'ubomir"
primary 'Richter, Bo'
primary 'Jensen, Torben R.'
_cell_length_a 26.1202
_cell_length_b 15.8927
_cell_length_c 8.653
_cell_angle_alpha 90.
_cell_angle_beta 90.
_cell_angle_gamma 90.
_cell_volume 3592.03
_cell_formula_units_Z 4
_space_group_name_H-M_alt 'C m c m'
_space_group_IT_number 63
loop_
_space_group_symop_id
_space_group_symop_operation_xyz
1 '-x, y, -z+1/2'
2 '-x, -y, z+1/2'
3 '-x, y, z'
4 '-x, -y, -z'
5 'x, -y, z+1/2'
6 'x, y, -z+1/2'
7 'x, -y, -z'
8 'x, y, z'
9 '-x+1/2, y+1/2, -z+1/2'
10 '-x+1/2, -y+1/2, z+1/2'
11 '-x+1/2, y+1/2, z'
12 '-x+1/2, -y+1/2, -z'
13 'x+1/2, -y+1/2, z+1/2'
14 'x+1/2, y+1/2, -z+1/2'
15 'x+1/2, -y+1/2, -z'
16 'x+1/2, y+1/2, z'
loop_
_atom_type_symbol
_atom_type_oxidation_number
Zn2+ 2
Mg2+ 2
H1- -1
B3+ 3
Zn2+ 2
H1- -1
B3+ 3
Li1+ 1
loop_
_atom_site_label
_atom_site_type_symbol
_atom_site_symmetry_multiplicity
_atom_site_Wyckoff_symbol
_atom_site_fract_x
_atom_site_fract_y
_atom_site_fract_z
_atom_site_U_iso_or_equiv
_atom_site_occupancy
Zn1 Zn2+ 8 g 0.1663 0.5024 0.75 0.05 1.
Zn2 Zn2+ 4 c 0. 0.2837 0.25 0.05 1.
Mg1 Mg2+ 4 c 0. 0.391 0.75 0.05 1.
H1 H1- 8 f 0. 0.1103 0.1287 0.05 1.
H2 H1- 8 g -0.0411 0.1906 0.25 0.05 1.
H3 H1- 8 f 0. 0.2952 0.5875 0.05 1.
H4 H1- 8 f 0. 0.4202 0.5107 0.05 1.
H5 H1- 16 h 0.0408 0.3338 0.4068 0.05 1.
H6 H1- 8 g 0.0778 0.3676 0.75 0.05 1.
H7 H1- 8 g 0.1294 0.6834 0.75 0.05 1.
H8 H1- 8 g 0.2742 0.4408 0.75 0.05 1.
H9 H1- 8 g 0.2228 0.3402 0.75 0.05 1.
H10 H1- 8 g 0.209 0.6726 0.75 0.05 1.
H11 H1- 8 g 0.0492 0.4912 0.75 0.05 1.
H12 H1- 16 h 0.1098 0.4576 0.8723 0.05 1.
H13 H1- 16 h 0.1649 0.5962 0.6269 0.05 1.
H14 H1- 16 h 0.2105 0.4432 0.8734 0.05 1.
B1 B3+ 4 c 0. 0.1491 0.25 0.05 1.
B2 B3+ 8 f 0. 0.3451 0.4788 0.05 1.
B3 B3+ 8 g 0.2302 0.4158 0.75 0.05 1.
B4 B3+ 8 g 0.1672 0.6388 0.75 0.05 1.
B5 B3+ 8 g 0.0866 0.4438 0.75 0.05 1.
Zn3 Zn2+ 8 g 0.1459 0.1431 0.75 0.05 1.
H15 H1- 16 h 0.0538 0.0503 0.8709 0.05 1.
H16 H1- 8 g 0.1172 0.0363 0.75 0.05 1.
H17 H1- 8 g 0.0742 0.15 0.75 0.05 1.
H18 H1- 16 h 0.1463 0.1478 0.4161 0.05 1.
H19 H1- 16 h 0.212 0.2125 0.4836 0.05 1.
H20 H1- 16 h 0.1479 0.2259 0.5975 0.05 1.
H21 H1- 16 h 0.1899 0.1116 0.9057 0.05 1.
B6 B3+ 8 g 0.0742 0.0713 0.75 0.05 1.
B7 B3+ 16 h 0.1736 0.1741 0.5198 0.05 1.
Li1 Li1+ 8 g 0.1966 0.1901 0.25 0.05 1.
Li2 Li1+ 4 c 0. 0.0031 0.25 0.05 1.
#End of TTdata_237566-ICSD
#
