(C) 2022 by FIZ Karlsruhe - Leibniz Institute for Information Infrastructure.  All rights reserved.
data_159713-ICSD
_database_code_ICSD 159713
_audit_creation_date 2008-08-01
_chemical_name_common 'Dilithium tetradeuteridoborate dideuterioamide'
_chemical_formula_structural 'Li2 (B D4) (N D2)'
_chemical_formula_sum 'D6 B1 Li2 N1'
_exptl_crystal_density_diffrn 0.93
_diffrn_ambient_temperature 5.
_citation_title
'Structures and crystal chemistry of Li2 B N H6 and Li4 B N3 H10'
loop_
_citation_id
_citation_journal_full
_citation_year
_citation_journal_volume
_citation_page_first
_citation_page_last
_citation_journal_id_ASTM
primary 'Chemistry of Materials' 2008 20 1245 1247 CMATEX
loop_
_citation_author_citation_id
_citation_author_name
primary 'Wu Hui'
primary 'Zhou Wei'
primary 'Udovic, T.J.'
primary 'Rush, J.J.'
primary 'Yildirim, T.'
_cell_length_a 14.3944(3)
_cell_length_b 14.3944(3)
_cell_length_c 9.0522(3)
_cell_angle_alpha 90.
_cell_angle_beta 90.
_cell_angle_gamma 120.
_cell_volume 1624.32
_cell_formula_units_Z 18
_space_group_name_H-M_alt 'R -3 H'
_space_group_IT_number 148
loop_
_space_group_symop_id
_space_group_symop_operation_xyz
1 'x-y, x, -z'
2 'y, -x+y, -z'
3 '-x, -y, -z'
4 '-x+y, -x, z'
5 '-y, x-y, z'
6 'x, y, z'
7 'x-y+2/3, x+1/3, -z+1/3'
8 'y+2/3, -x+y+1/3, -z+1/3'
9 '-x+2/3, -y+1/3, -z+1/3'
10 '-x+y+2/3, -x+1/3, z+1/3'
11 '-y+2/3, x-y+1/3, z+1/3'
12 'x+2/3, y+1/3, z+1/3'
13 'x-y+1/3, x+2/3, -z+2/3'
14 'y+1/3, -x+y+2/3, -z+2/3'
15 '-x+1/3, -y+2/3, -z+2/3'
16 '-x+y+1/3, -x+2/3, z+2/3'
17 '-y+1/3, x-y+2/3, z+2/3'
18 'x+1/3, y+2/3, z+2/3'
loop_
_atom_type_symbol
_atom_type_oxidation_number
Li1+ 1
B3+ 3
D1- -1
N3- -3
D1+ 1
loop_
_atom_site_label
_atom_site_type_symbol
_atom_site_symmetry_multiplicity
_atom_site_Wyckoff_symbol
_atom_site_fract_x
_atom_site_fract_y
_atom_site_fract_z
_atom_site_U_iso_or_equiv
_atom_site_occupancy
Li1 Li1+ 18 f 0.9578(3) 0.5625(5) 0.6210(4) 0.021(4) 1.
Li2 Li1+ 18 f 0.1806(3) 0.6318(5) 0.2434(4) 0.010(4) 1.
B1 B3+ 18 f 0.0077(2) 0.5888(3) 0.3428(4) 0.0017(2) 1.
D1 D1- 18 f -0.0082(5) 0.5175(5) 0.2554(4) 0.038(2) 1.
D2 D1- 18 f 0.0641(5) 0.5907(2) 0.4414(2) 0.023(1) 1.
D3 D1- 18 f 0.0587(5) 0.6731(5) 0.2753(4) 0.035(4) 1.
D4 D1- 18 f -0.0756(5) 0.5744(5) 0.3890(7) 0.022(5) 1.
N1 N3- 18 f 0.8439(3) 0.9695(2) 0.3525(3) 0.011(4) 1.
D5 D1+ 18 f 0.8686(4) 0.9620(5) 0.2535(6) 0.013(2) 1.
D6 D1+ 18 f 0.8557(5) 0.7646(5) 0.6522(7) 0.017(5) 1.
#End of TTdata_159713-ICSD
#
