(C) 2022 by FIZ Karlsruhe - Leibniz Institute for Information Infrastructure.  All rights reserved.
data_159714-ICSD
_database_code_ICSD 159714
_audit_creation_date 2008-08-01
_chemical_name_common 'Tetralithium tetradeuteridoborate tris(dideuterioamide)'
_chemical_formula_structural 'Li4 (B D4) (N D2)3'
_chemical_formula_sum 'D10 B1 Li4 N3'
_chemical_name_structure_type Li4(NH2)3BH4
_exptl_crystal_density_diffrn 1.13
_diffrn_ambient_temperature 5.
_citation_title
'Structures and crystal chemistry of Li2 B N H6 and Li4 B N3 H10'
loop_
_citation_id
_citation_journal_full
_citation_year
_citation_journal_volume
_citation_page_first
_citation_page_last
_citation_journal_id_ASTM
primary 'Chemistry of Materials' 2008 20 1245 1247 CMATEX
loop_
_citation_author_citation_id
_citation_author_name
primary 'Wu Hui'
primary 'Zhou Wei'
primary 'Udovic, T.J.'
primary 'Rush, J.J.'
primary 'Yildirim, T.'
_cell_length_a 10.5803(1)
_cell_length_b 10.5803(1)
_cell_length_c 10.5803(1)
_cell_angle_alpha 90.
_cell_angle_beta 90.
_cell_angle_gamma 90.
_cell_volume 1184.39
_cell_formula_units_Z 8
_space_group_name_H-M_alt 'I 21 3'
_space_group_IT_number 199
loop_
_space_group_symop_id
_space_group_symop_operation_xyz
1 '-z+1/2, -x, y+1/2'
2 '-y+1/2, -z, x+1/2'
3 '-x+1/2, -y, z+1/2'
4 '-z, x+1/2, -y+1/2'
5 '-y, z+1/2, -x+1/2'
6 '-x, y+1/2, -z+1/2'
7 'z+1/2, -x+1/2, -y'
8 'y+1/2, -z+1/2, -x'
9 'x+1/2, -y+1/2, -z'
10 'z, x, y'
11 'y, z, x'
12 'x, y, z'
13 '-z, -x+1/2, y'
14 '-y, -z+1/2, x'
15 '-x, -y+1/2, z'
16 '-z+1/2, x, -y'
17 '-y+1/2, z, -x'
18 '-x+1/2, y, -z'
19 'z, -x, -y+1/2'
20 'y, -z, -x+1/2'
21 'x, -y, -z+1/2'
22 'z+1/2, x+1/2, y+1/2'
23 'y+1/2, z+1/2, x+1/2'
24 'x+1/2, y+1/2, z+1/2'
loop_
_atom_type_symbol
_atom_type_oxidation_number
Li1+ 1
B3+ 3
D1- -1
N3- -3
D1+ 1
loop_
_atom_site_label
_atom_site_type_symbol
_atom_site_symmetry_multiplicity
_atom_site_Wyckoff_symbol
_atom_site_fract_x
_atom_site_fract_y
_atom_site_fract_z
_atom_site_U_iso_or_equiv
_atom_site_occupancy
Li1 Li1+ 12 b 0.25 -0.0348(4) 0 0.017(4) 1.
Li2 Li1+ 12 b 0.25 0.7282(2) 0 0.014(4) 1.
Li3 Li1+ 8 a 0.2639(4) 0.2639(4) 0.2639(4) 0.016(5) 1.
B1 B3+ 8 a 0.1400(3) 0.1400(3) 0.1400(3) 0.0010(4) 1.
D1 D1- 8 a 0.0747(5) 0.0747(5) 0.0747(5) 0.043(4) 1.
D2 D1- 24 c 0.1021(5) 0.1336(4) 0.2461(4) 0.035(1) 1.
N1 N3- 24 c 0.1095(2) 0.3670(2) 0.8474(2) 0.0081(4) 1.
D3 D1+ 24 c 0.1451(5) 0.5546(5) 0.0568(5) 0.0209(5) 1.
D4 D1+ 24 c 0.0743(3) 0.6662(5) 0.1308(5) 0.016(1) 1.
#End of TTdata_159714-ICSD
#
