(C) 2022 by FIZ Karlsruhe - Leibniz Institute for Information Infrastructure.  All rights reserved.
data_265063-ICSD
_database_code_ICSD 265063
_audit_creation_date 2019-02-01
_audit_update_record 2021-08-01
_chemical_name_common 'Neodymium tris(borohydride) - alpha'
_chemical_formula_structural 'Nd (B H4)3'
_chemical_formula_sum 'H12 B3 Nd1'
_chemical_name_structure_type α−Y(BH4)3_(RT,distorted)
_exptl_crystal_density_diffrn 1.76
_citation_title 'From metal hydrides to metal borohydrides'
loop_
_citation_id
_citation_journal_full
_citation_year
_citation_journal_volume
_citation_page_first
_citation_page_last
_citation_journal_id_ASTM
primary 'Inorganic Chemistry' 2018 57 10768 10780 INOCAJ
loop_
_citation_author_citation_id
_citation_author_name
primary 'Richter, Bo'
primary 'Grinderslev, Jakob B.'
primary 'Moeller, Kasper T.'
primary 'Paskevicius, Mark'
primary 'Jensen, Torben R.'
_cell_length_a 11.2462(2)
_cell_length_b 11.2462(2)
_cell_length_c 11.2462(2)
_cell_angle_alpha 90.
_cell_angle_beta 90.
_cell_angle_gamma 90.
_cell_volume 1422.38
_cell_formula_units_Z 8
_space_group_name_H-M_alt 'P a -3'
_space_group_IT_number 205
loop_
_space_group_symop_id
_space_group_symop_operation_xyz
1 '-z+1/2, x+1/2, y'
2 'z+1/2, x, -y+1/2'
3 'z, -x+1/2, y+1/2'
4 '-z, -x, -y'
5 'y, -z+1/2, x+1/2'
6 '-y+1/2, z+1/2, x'
7 'y+1/2, z, -x+1/2'
8 '-y, -z, -x'
9 'x+1/2, y, -z+1/2'
10 'x, -y+1/2, z+1/2'
11 '-x+1/2, y+1/2, z'
12 '-x, -y, -z'
13 'z+1/2, -x+1/2, -y'
14 '-z+1/2, -x, y+1/2'
15 '-z, x+1/2, -y+1/2'
16 'z, x, y'
17 '-y, z+1/2, -x+1/2'
18 'y+1/2, -z+1/2, -x'
19 '-y+1/2, -z, x+1/2'
20 'y, z, x'
21 '-x+1/2, -y, z+1/2'
22 '-x, y+1/2, -z+1/2'
23 'x+1/2, -y+1/2, -z'
24 'x, y, z'
loop_
_atom_type_symbol
_atom_type_oxidation_number
Nd3+ 3
B3+ 3
H1- -1
loop_
_atom_site_label
_atom_site_type_symbol
_atom_site_symmetry_multiplicity
_atom_site_Wyckoff_symbol
_atom_site_fract_x
_atom_site_fract_y
_atom_site_fract_z
_atom_site_U_iso_or_equiv
_atom_site_occupancy
Nd1 Nd3+ 8 c 0.2179 0.2179 0.2179 0.01267 1.
B1 B3+ 24 d 0.193 0.2473 0.9682 0.038 1.00001
H1 H1- 24 d 0.2909 0.2534 0.0243 0.06333 1.00001
H2 H1- 24 d 0.1043 0.2257 0.0351 0.06333 1.00001
H3 H1- 24 d 0.1752 0.3475 0.9192 0.06333 1.00001
H4 H1- 24 d 0.2014 0.1623 0.8942 0.06333 1.00001
#End of TTdata_265063-ICSD
#
