(C) 2022 by FIZ Karlsruhe - Leibniz Institute for Information Infrastructure.  All rights reserved.
data_95208-ICSD
_database_code_ICSD 95208
_audit_creation_date 2003-10-01
_audit_update_record 2012-02-01
_chemical_name_common 'Lithium boron hydride - HT'
_chemical_formula_structural 'Li B H4'
_chemical_formula_sum 'H4 B1 Li1'
_chemical_name_structure_type LiBH4(hP12)
_exptl_crystal_density_diffrn 0.66
_diffrn_ambient_temperature 408.
_citation_title 'Lithium boro-hydride Li B H4'
loop_
_citation_id
_citation_journal_full
_citation_year
_citation_journal_volume
_citation_page_first
_citation_page_last
_citation_journal_id_ASTM
primary 'Journal of Alloys and Compounds' 2002 346 200 205 JALCEU
loop_
_citation_author_citation_id
_citation_author_name
primary 'Soulie, J.P.'
primary 'Renaudin, G.'
primary 'Cerny, R.'
primary 'Yvon, K.'
_cell_length_a 4.27631(5)
_cell_length_b 4.27631(5)
_cell_length_c 6.94844(8)
_cell_angle_alpha 90
_cell_angle_beta 90
_cell_angle_gamma 120
_cell_volume 110.04
_cell_formula_units_Z 2
_space_group_name_H-M_alt 'P 63 m c'
_space_group_IT_number 186
loop_
_space_group_symop_id
_space_group_symop_operation_xyz
1 '-x, -x+y, z+1/2'
2 'x-y, -y, z+1/2'
3 'y, x, z+1/2'
4 'x-y, x, z+1/2'
5 'y, -x+y, z+1/2'
6 '-x, -y, z+1/2'
7 'x, x-y, z'
8 '-x+y, y, z'
9 '-y, -x, z'
10 '-x+y, -x, z'
11 '-y, x-y, z'
12 'x, y, z'
loop_
_atom_type_symbol
_atom_type_oxidation_number
Li1+ 1
B3+ 3
H1- -1
loop_
_atom_site_label
_atom_site_type_symbol
_atom_site_symmetry_multiplicity
_atom_site_Wyckoff_symbol
_atom_site_fract_x
_atom_site_fract_y
_atom_site_fract_z
_atom_site_B_iso_or_equiv
_atom_site_occupancy
Li1 Li1+ 2 b 0.3333 0.6667 0 1.0(2) 1.
B1 B3+ 2 b 0.3333 0.6667 0.553(1) 8.6(4) 1.
H1 H1- 2 b 0.3333 0.6667 0.370(2) 3.5(5) 1.
H2 H1- 6 c 0.172(2) 0.344(4) 0.624(3) 6.4(4) 1.
#End of TTdata_95208-ICSD
#
