(C) 2022 by FIZ Karlsruhe - Leibniz Institute for Information Infrastructure.  All rights reserved.
data_237568-ICSD
_database_code_ICSD 237568
_audit_creation_date 2015-02-01
_chemical_name_common 'Lithium magnesium zinc borohydride (3/1/5/15)'
_chemical_formula_structural 'Li3 Mg Zn5 (B H4)15'
_chemical_formula_sum 'H60 B15 Li3 Mg1 Zn5'
_exptl_crystal_density_diffrn 1.2
_citation_title

;
Trimetallic borohydride Li3 M Zn5 (B H4)15 (M = Mg, Mn) containing two weakly
interconnected frameworks
;
loop_
_citation_id
_citation_journal_full
_citation_year
_citation_journal_volume
_citation_page_first
_citation_page_last
_citation_journal_id_ASTM
primary 'Inorganic Chemistry' 2013 52 9941 9947 INOCAJ
loop_
_citation_author_citation_id
_citation_author_name
primary 'Cerny, Radovan'
primary 'Schouwink, Pascal'
primary 'Sadikin, Yolanda'
primary 'Stare, Katarina'
primary "Smrcok, L'ubomir"
primary 'Richter, Bo'
primary 'Jensen, Torben R.'
_cell_length_a 25.2666
_cell_length_b 15.1031
_cell_length_c 8.5854
_cell_angle_alpha 90.
_cell_angle_beta 90.
_cell_angle_gamma 90.
_cell_volume 3276.22
_cell_formula_units_Z 4
_space_group_name_H-M_alt 'C m c m'
_space_group_IT_number 63
loop_
_space_group_symop_id
_space_group_symop_operation_xyz
1 '-x, y, -z+1/2'
2 '-x, -y, z+1/2'
3 '-x, y, z'
4 '-x, -y, -z'
5 'x, -y, z+1/2'
6 'x, y, -z+1/2'
7 'x, -y, -z'
8 'x, y, z'
9 '-x+1/2, y+1/2, -z+1/2'
10 '-x+1/2, -y+1/2, z+1/2'
11 '-x+1/2, y+1/2, z'
12 '-x+1/2, -y+1/2, -z'
13 'x+1/2, -y+1/2, z+1/2'
14 'x+1/2, y+1/2, -z+1/2'
15 'x+1/2, -y+1/2, -z'
16 'x+1/2, y+1/2, z'
loop_
_atom_type_symbol
_atom_type_oxidation_number
Zn2+ 2
Mg2+ 2
H1- -1
B3+ 3
Zn2+ 2
H1- -1
B3+ 3
Li1+ 1
loop_
_atom_site_label
_atom_site_type_symbol
_atom_site_symmetry_multiplicity
_atom_site_Wyckoff_symbol
_atom_site_fract_x
_atom_site_fract_y
_atom_site_fract_z
_atom_site_U_iso_or_equiv
_atom_site_occupancy
Zn1 Zn2+ 8 g 0.1695 0.5044 0.75 0.05 1.
Zn2 Zn2+ 4 c 0. 0.2863 0.25 0.05 1.
Mg1 Mg2+ 4 c 0. 0.3886 0.75 0.05 1.
H1 H1- 8 f 0. 0.1052 0.1283 0.05 1.
H2 H1- 8 g -0.0425 0.1886 0.25 0.05 1.
H3 H1- 8 f 0. 0.294 0.5832 0.05 1.
H4 H1- 8 f 0. 0.427 0.5162 0.05 1.
H5 H1- 16 h 0.0421 0.3399 0.4062 0.05 1.
H6 H1- 8 g 0.0793 0.3622 0.75 0.05 1.
H7 H1- 8 g 0.1331 0.6979 0.75 0.05 1.
H8 H1- 8 g 0.2811 0.4396 0.75 0.05 1.
H9 H1- 8 g 0.2269 0.3361 0.75 0.05 1.
H10 H1- 8 g 0.2143 0.6779 0.75 0.05 1.
H11 H1- 8 g 0.0501 0.4918 0.75 0.05 1.
H12 H1- 16 h 0.1119 0.4562 0.873 0.05 1.
H13 H1- 16 h 0.1657 0.6036 0.6262 0.05 1.
H14 H1- 16 h 0.216 0.4443 0.8741 0.05 1.
B1 B3+ 4 c 0. 0.1454 0.25 0.05 1.
B2 B3+ 8 f 0. 0.3494 0.4787 0.05 1.
B3 B3+ 8 g 0.2356 0.4147 0.75 0.05 1.
B4 B3+ 8 g 0.1702 0.6473 0.75 0.05 1.
B5 B3+ 8 g 0.0884 0.4419 0.75 0.05 1.
Zn3 Zn2+ 8 g 0.1497 0.1455 0.75 0.05 1.
H15 H1- 16 h 0.0534 0.052 0.8713 0.05 1.
H16 H1- 8 g 0.118 0.0348 0.75 0.05 1.
H17 H1- 8 g 0.0752 0.1557 0.75 0.05 1.
H18 H1- 16 h 0.1459 0.149 0.4182 0.05 1.
H19 H1- 16 h 0.2148 0.2164 0.4736 0.05 1.
H20 H1- 16 h 0.1515 0.2335 0.5967 0.05 1.
H21 H1- 16 h 0.1942 0.1128 0.9087 0.05 1.
B6 B3+ 8 g 0.0744 0.0733 0.75 0.05 1.
B7 B3+ 16 h 0.1759 0.1776 0.5167 0.05 1.
Li1 Li1+ 8 g 0.1944 0.1945 0.25 0.05 1.
Li2 Li1+ 4 c 0. 0.0006 0.75 0.05 1.
#End of TTdata_237568-ICSD
#
