(C) 2022 by FIZ Karlsruhe - Leibniz Institute for Information Infrastructure.  All rights reserved.
data_32844-ICSD
_database_code_ICSD 32844
_audit_creation_date 2022-02-01
_chemical_name_common 'Lithium uranium pentafluoride'
_chemical_formula_structural 'Li U F5'
_chemical_formula_sum 'F5 Li1 U1'
_chemical_name_structure_type LiUF5
_exptl_crystal_density_diffrn 6.3
_diffrn_ambient_temperature 10.
_citation_title

;
Preparation, thermal stability and crystal structure of Li$_3$UF$_7$. New
insights into LiF-UF$_4$ binary phase diagram
;
loop_
_citation_id
_citation_journal_full
_citation_year
_citation_journal_volume
_citation_page_first
_citation_page_last
_citation_journal_id_ASTM
primary 'Journal of Alloys and Compounds' 2021 856 '' '' JALCEU
loop_
_citation_author_citation_id
_citation_author_name
primary 'Kolay, Siddhartha'
primary 'Achary, S. Nagabhusan'
primary 'Shinde, A.B.'
primary 'Ram Krishna, P. Siva'
primary 'Basu, Manidipa'
primary 'Mishra, Ratikant'
primary 'Tyagi, Avesh K.'
_cell_length_a 14.8346(10)
_cell_length_b 14.8346(10)
_cell_length_c 6.5163(7)
_cell_angle_alpha 90.
_cell_angle_beta 90.
_cell_angle_gamma 90.
_cell_volume 1434.01
_cell_formula_units_Z 16
_space_group_name_H-M_alt 'I 41/a Z'
_space_group_IT_number 88
loop_
_space_group_symop_id
_space_group_symop_operation_xyz
1 '-y+3/4, x+3/4, -z+3/4'
2 'y+1/4, -x+3/4, -z+3/4'
3 'x, y+1/2, -z'
4 '-x, -y, -z'
5 'y+1/4, -x+1/4, z+1/4'
6 '-y+3/4, x+1/4, z+1/4'
7 '-x, -y+1/2, z'
8 'x, y, z'
9 '-y+1/4, x+1/4, -z+1/4'
10 'y+3/4, -x+1/4, -z+1/4'
11 'x+1/2, y, -z+1/2'
12 '-x+1/2, -y+1/2, -z+1/2'
13 'y+3/4, -x+3/4, z+3/4'
14 '-y+1/4, x+3/4, z+3/4'
15 '-x+1/2, -y, z+1/2'
16 'x+1/2, y+1/2, z+1/2'
loop_
_atom_type_symbol
_atom_type_oxidation_number
U4+ 4
F1- -1
Li1+ 1
loop_
_atom_site_label
_atom_site_type_symbol
_atom_site_symmetry_multiplicity
_atom_site_Wyckoff_symbol
_atom_site_fract_x
_atom_site_fract_y
_atom_site_fract_z
_atom_site_B_iso_or_equiv
_atom_site_occupancy
U1 U4+ 16 f 0.0618(5) 0.0571(4) 0.245(10) 0.32(4) 1.
F1 F1- 16 f 0.3028(8) 0.2139(7) 0.1236(14) 0.32(4) 1.
F2 F1- 16 f 0.4265(6) 0.0449(8) 0.0076(14) 0.32(4) 1.
F3 F1- 16 f 0.1066(7) 0.1830(7) 0.0734(14) 0.32(4) 1.
F4 F1- 16 f 0.2030(7) 0.0939(7) 0.3684(16) 0.32(4) 1.
F5 F1- 16 f 0.0493(6) 0.1673(6) 0.4816(16) 0.32(4) 1.
Li1 Li1+ 16 f 0.4201(16) 0.1860(23) 0.0073(55) 0.32(4) 1.
#End of TTdata_32844-ICSD
#
