(C) 2022 by FIZ Karlsruhe - Leibniz Institute for Information Infrastructure.  All rights reserved.
data_432268-ICSD
_database_code_ICSD 432268
_audit_creation_date 2017-08-01
_chemical_name_common 'Lithium tetracalcium tetrasilicium octanitride fluoride'
_chemical_formula_structural 'Li Ca4 Si4 N8 F'
_chemical_formula_sum 'Ca4 F1 Li1 N8 Si4'
_exptl_crystal_density_diffrn 3.12
_diffrn_ambient_temperature 293.
_citation_title

;
LiCa4Si4N8F and LiSr4Si4N8F. Nitridosilicate fluorides with a BCT-zeolite-type
network structure
;
loop_
_citation_id
_citation_journal_full
_citation_year
_citation_journal_volume
_citation_page_first
_citation_page_last
_citation_journal_id_ASTM
primary 'European Journal of Inorganic Chemistry' 2017 2017 1107 1112 EJICFO
loop_
_citation_author_citation_id
_citation_author_name
primary 'Horky, Katrin'
primary 'Schnick, Wolfgang'
_cell_length_a 10.5108(3)
_cell_length_b 9.0217(3)
_cell_length_c 10.3574(3)
_cell_angle_alpha 90
_cell_angle_beta 117.0150(10)
_cell_angle_gamma 90
_cell_volume 874.97
_cell_formula_units_Z 4
_space_group_name_H-M_alt 'P 1 21/c 1'
_space_group_IT_number 14
loop_
_space_group_symop_id
_space_group_symop_operation_xyz
1 'x, -y+1/2, z+1/2'
2 '-x, -y, -z'
3 '-x, y+1/2, -z+1/2'
4 'x, y, z'
loop_
_atom_type_symbol
_atom_type_oxidation_number
Ca2+ 2
Si4+ 4
F1- -1
N3- -3
Li1+ 1
loop_
_atom_site_label
_atom_site_type_symbol
_atom_site_symmetry_multiplicity
_atom_site_Wyckoff_symbol
_atom_site_fract_x
_atom_site_fract_y
_atom_site_fract_z
_atom_site_U_iso_or_equiv
_atom_site_occupancy
Ca1 Ca2+ 4 e 0.36741(6) 0.93978(7) 0.14072(6) 0.00759(13) 1
Ca2 Ca2+ 4 e 0.48213(6) 1.28982(7) 0.04237(7) 0.00880(13) 1
Ca3 Ca2+ 4 e 0.05026(6) 0.74069(7) 0.98904(6) 0.00758(13) 1
Ca4 Ca2+ 4 e 0.11468(7) 1.06114(7) 0.31605(8) 0.01335(14) 1
Si1 Si4+ 4 e 0.36263(8) 0.59964(9) 0.13105(8) 0.00364(15) 1
Si2 Si4+ 4 e 0.14203(8) 1.11804(9) 0.90135(9) 0.00382(15) 1
Si3 Si4+ 4 e 0.18953(8) 0.76547(9) 0.81148(8) 0.00381(15) 1
Si4 Si4+ 4 e 0.30972(8) 1.25362(9) 0.21892(8) 0.00374(15) 1
F1 F1- 2 b 0.5 1. 0. 0.0132(5) 1
F2 F1- 2 c 0. 0.5 0. 0.0265(8) 1
N1 N3- 4 e 0.2561(3) 1.2115(3) 0.8526(3) 0.0067(5) 1
N2 N3- 4 e 0.0263(3) 0.6881(3) 0.7028(3) 0.0072(5) 1
N3 N3- 4 e 0.1567(3) 0.9280(3) 0.8823(3) 0.0062(5) 1
N4 N3- 4 e 0.3622(3) 0.4147(3) 0.1672(3) 0.0076(5) 1
N5 N3- 4 e 0.1835(3) 1.1461(3) 0.0833(3) 0.0062(5) 1
N6 N3- 4 e 0.2915(3) 0.7909(3) 0.7224(3) 0.0055(4) 1
N7 N3- 4 e 0.2757(3) 0.6414(3) 0.9496(3) 0.0068(5) 1
N8 N3- 4 e 0.5388(3) 0.6461(3) 0.1961(3) 0.0076(5) 1
Li1 Li1+ 4 e 0.6837(6) 0.9949(6) 0.1731(6) 0.0117(11) 1
loop_
_atom_site_aniso_label
_atom_site_aniso_type_symbol
_atom_site_aniso_U_11
_atom_site_aniso_U_22
_atom_site_aniso_U_33
_atom_site_aniso_U_12
_atom_site_aniso_U_13
_atom_site_aniso_U_23
Ca1 Ca2+ 0.0080(3) 0.0054(3) 0.0083(3) -0.0002(2) 0.0028(2) 0.0001(2)
Ca2 Ca2+ 0.0058(3) 0.0147(3) 0.0068(3) 0.0003(2) 0.0036(2) -0.0003(2)
Ca3 Ca2+ 0.0077(3) 0.0090(3) 0.0084(3) 0.0003(2) 0.0057(2) -0.0004(2)
Ca4 Ca2+ 0.0083(3) 0.0052(3) 0.0232(3) -0.0002(2) 0.0043(2) -0.0016(2)
Si1 Si4+ 0.0039(3) 0.0031(3) 0.0044(3) 0.0005(3) 0.0023(3) 0.0007(3)
Si2 Si4+ 0.0035(3) 0.0038(3) 0.0048(3) -0.0001(3) 0.0025(3) 0.0000(3)
Si3 Si4+ 0.0034(3) 0.0035(3) 0.0045(3) -0.0003(3) 0.0018(3) 0.0001(3)
Si4 Si4+ 0.0039(3) 0.0028(3) 0.0053(3) -0.0003(3) 0.0028(3) -0.0004(3)
F1 F1- 0.0065(12) 0.0220(14) 0.0106(12) 0.0018(11) 0.0033(10) 0.0021(11)
F2 F1- 0.0168(15) 0.0099(14) 0.0372(19) -0.0021(12) -0.0012(13) 0.0063(13)
N1 N3- 0.0076(11) 0.0065(11) 0.0080(11) -0.0011(9) 0.0055(9) -0.0002(9)
N2 N3- 0.0055(11) 0.0090(11) 0.0065(11) -0.0030(9) 0.0023(9) -0.0008(9)
N3 N3- 0.0083(11) 0.0051(11) 0.0074(11) 0.0011(9) 0.0055(9) 0.0000(9)
N4 N3- 0.0112(12) 0.0043(11) 0.0103(12) -0.0012(9) 0.0076(10) -0.0007(9)
N5 N3- 0.0063(11) 0.0069(11) 0.0053(11) -0.0004(9) 0.0026(9) -0.0008(9)
N6 N3- 0.0061(11) 0.0056(11) 0.0053(11) -0.0001(9) 0.0031(9) -0.0003(9)
N7 N3- 0.0081(11) 0.0079(11) 0.0045(11) -0.0001(9) 0.0029(9) 0.0016(9)
N8 N3- 0.0051(11) 0.0093(11) 0.0078(12) -0.0005(9) 0.0023(9) 0.0019(9)
Li1 Li1+ 0.018(3) 0.007(2) 0.017(3) 0.001(2) 0.014(2) 0.002(2)
#End of TTdata_432268-ICSD
#
