(C) 2022 by FIZ Karlsruhe - Leibniz Institute for Information Infrastructure.  All rights reserved.
data_112312-ICSD
_database_code_ICSD 112312
_audit_creation_date 2022-02-01
_chemical_name_common 'Samarium triscandium tetrakis(trioxoborate) - LT'
_chemical_formula_structural 'Sm Sc3 (B O3)4'
_chemical_formula_sum 'B4 O12 Sc3 Sm1'
_chemical_name_structure_type NdAl3(BO3)4
_exptl_crystal_density_diffrn 3.96
_diffrn_ambient_temperature 293.
_citation_title

;
Polymorphism in SmSc$_3$(BO$_3$)$_4$. Crystal structure, luminescent and SHG
properties
;
loop_
_citation_id
_citation_journal_full
_citation_year
_citation_journal_volume
_citation_page_first
_citation_page_last
_citation_journal_id_ASTM
primary 'Journal of Alloys and Compounds' 2021 851 '' '' JALCEU
loop_
_citation_author_citation_id
_citation_author_name
primary 'Kuznetsov, Artem B.'
primary 'Kokh, Konstantin A.'
primary 'Kononova, Nadezda G.'
primary 'Shevchenko, Vyacheslav S.'
primary 'Rashchenko, Sergey V.'
primary 'Ezhov, Dmitry M.'
primary 'Jamous, Ammar Y.'
primary 'Bolatov, Asset'
primary 'Uralbekov, Bolat'
primary 'Svetlichnyi, Valery A.'
primary 'Kokh, Aleksander E.'
_cell_length_a 7.6908(11)
_cell_length_b 9.8066(11)
_cell_length_c 12.0022(3)
_cell_angle_alpha 90
_cell_angle_beta 105.343(16)
_cell_angle_gamma 90
_cell_volume 872.95
_cell_formula_units_Z 4
_space_group_name_H-M_alt 'C 1 2/c 1'
_space_group_IT_number 15
loop_
_space_group_symop_id
_space_group_symop_operation_xyz
1 'x, -y, z+1/2'
2 '-x, -y, -z'
3 '-x, y, -z+1/2'
4 'x, y, z'
5 'x+1/2, -y+1/2, z+1/2'
6 '-x+1/2, -y+1/2, -z'
7 '-x+1/2, y+1/2, -z+1/2'
8 'x+1/2, y+1/2, z'
loop_
_atom_type_symbol
_atom_type_oxidation_number
Sm3+ 3
Sc3+ 3
O2- -2
B3+ 3
loop_
_atom_site_label
_atom_site_type_symbol
_atom_site_symmetry_multiplicity
_atom_site_Wyckoff_symbol
_atom_site_fract_x
_atom_site_fract_y
_atom_site_fract_z
_atom_site_U_iso_or_equiv
_atom_site_occupancy
Sm1 Sm3+ 4 e 0. 0.03212(2) 0.25 0.00818(8) 1
Sc1 Sc3+ 4 e 0. 0.57160(6) 0.25 0.00421(12) 1
Sc2 Sc3+ 8 f 0.04671(6) 0.24877(5) 0.52450(4) 0.00507(10) 1
O1 O2- 8 f 0.4057(2) 0.41345(19) 0.07092(16) 0.0087(3) 1
O2 O2- 8 f 0.2501(3) 0.11622(19) 0.49720(18) 0.0101(3) 1
O3 O2- 8 f 0.3851(2) 0.09741(19) 0.06752(16) 0.0086(3) 1
O4 O2- 8 f 0.3401(3) 0.2264(2) 0.29581(17) 0.0124(4) 1
O5 O2- 8 f 0.2042(3) 0.5594(2) 0.73789(17) 0.0097(3) 1
O6 O2- 8 f 0.0687(3) 0.2305(2) 0.15000(16) 0.0099(3) 1
B1 B3+ 8 f 0.2021(4) 0.3011(3) 0.2264(2) 0.0068(5) 1
B2 B3+ 8 f 0.2449(4) 0.0238(3) -0.0006(2) 0.0070(5) 1
loop_
_atom_site_aniso_label
_atom_site_aniso_type_symbol
_atom_site_aniso_U_11
_atom_site_aniso_U_22
_atom_site_aniso_U_33
_atom_site_aniso_U_12
_atom_site_aniso_U_13
_atom_site_aniso_U_23
Sm1 Sm3+ 0.00862(11) 0.00854(11) 0.00771(11) 0. 0.00272(7) 0.
Sc1 Sc3+ 0.0038(3) 0.0045(3) 0.0044(3) 0. 0.0012(2) 0.
Sc2 Sc3+ 0.0050(2) 0.0048(2) 0.0054(2) 0.00014(14) 0.00126(15) -0.00023(14)
O1 O2- 0.0079(8) 0.0093(8) 0.0088(8) 0.0027(6) 0.0019(6) 0.0005(6)
O2 O2- 0.0071(8) 0.0057(8) 0.0190(9) 0.0000(6) 0.0058(7) 0.0009(7)
O3 O2- 0.0084(8) 0.0081(8) 0.0091(8) -0.0015(6) 0.0019(6) 0.0002(6)
O4 O2- 0.0130(9) 0.0130(9) 0.0086(9) 0.0083(7) -0.0020(7) -0.0015(7)
O5 O2- 0.0096(8) 0.0078(8) 0.0136(9) -0.0012(6) 0.0063(7) -0.0009(7)
O6 O2- 0.0081(8) 0.0135(9) 0.0077(8) -0.0018(7) 0.0010(7) -0.0013(7)
B1 B3+ 0.0065(11) 0.0093(12) 0.0053(11) -0.0002(9) 0.0026(9) -0.0015(9)
B2 B3+ 0.0059(11) 0.0078(13) 0.0086(12) 0.0013(9) 0.0042(10) 0.0008(9)
#End of TTdata_112312-ICSD
#
