(C) 2022 by FIZ Karlsruhe - Leibniz Institute for Information Infrastructure.  All rights reserved.
data_247030-ICSD
_database_code_ICSD 247030
_audit_creation_date 2010-02-01
_chemical_name_common
'Lanthanum chloride tantalum(V) oxide fluoride (3/3/1/5/1)'
_chemical_formula_structural 'La3 Cl3 Ta O5 F'
_chemical_formula_sum 'Cl3 F1 La3 O5 Ta1'
_chemical_name_structure_type Pr3WO6Cl3
_exptl_crystal_density_diffrn 6.26
_citation_title

;
Two fluoride-containing oxotantalates(V) of the light lanthanides: Nd F Ta2 O6
and La3 Cl3 Ta O5 F
;
loop_
_citation_id
_citation_journal_full
_citation_year
_citation_journal_volume
_citation_page_first
_citation_page_last
_citation_journal_id_ASTM
primary 'Solid State Sciences' 2009 11 1992 1997 SSSCFJ
loop_
_citation_author_citation_id
_citation_author_name
primary 'Janka, O.'
primary 'Schleid, T.'
_cell_length_a 9.4714(7)
_cell_length_b 9.4714(7)
_cell_length_c 5.4856(4)
_cell_angle_alpha 90.
_cell_angle_beta 90.
_cell_angle_gamma 120.
_cell_volume 426.17
_cell_formula_units_Z 2
_space_group_name_H-M_alt 'P 63/m'
_space_group_IT_number 176
loop_
_space_group_symop_id
_space_group_symop_operation_xyz
1 '-x+y, -x, -z+1/2'
2 '-y, x-y, -z+1/2'
3 'x, y, -z+1/2'
4 'x-y, x, -z'
5 'y, -x+y, -z'
6 '-x, -y, -z'
7 'x-y, x, z+1/2'
8 'y, -x+y, z+1/2'
9 '-x, -y, z+1/2'
10 '-x+y, -x, z'
11 '-y, x-y, z'
12 'x, y, z'
loop_
_atom_type_symbol
_atom_type_oxidation_number
La3+ 3
Cl1- -1
Ta5+ 5
O2- -2
F1- -1
loop_
_atom_site_label
_atom_site_type_symbol
_atom_site_symmetry_multiplicity
_atom_site_Wyckoff_symbol
_atom_site_fract_x
_atom_site_fract_y
_atom_site_fract_z
_atom_site_U_iso_or_equiv
_atom_site_occupancy
La1 La3+ 6 h 0.40313(5) 0.08932(5) 0.25 0.0120(2) 1.
Cl1 Cl1- 6 h 0.1911(2) 0.2424(2) 0.25 0.0123(3) 1.
Ta1 Ta5+ 2 c 0.3333 0.6667 0.25 0.0112(2) 1.
O1 O2- 12 i 0.1590(4) 0.5234(4) 0.0159(5) 0.0121(10) 0.8333
F1 F1- 12 i 0.1590(4) 0.5234(4) 0.0159(5) 0.0121(10) 0.1667
loop_
_atom_site_aniso_label
_atom_site_aniso_type_symbol
_atom_site_aniso_U_11
_atom_site_aniso_U_22
_atom_site_aniso_U_33
_atom_site_aniso_U_12
_atom_site_aniso_U_13
_atom_site_aniso_U_23
La1 La3+ 0.0109(2) 0.0169(2) 0.0089(2) 0. 0. 0.0076(2)
Cl1 Cl1- 0.0136(7) 0.0159(7) 0.0101(7) 0. 0. 0.0094(6)
Ta1 Ta5+ 0.0076(2) 0.0076(2) 0.0184(3) 0. 0. 0.0038(2)
O1 O2- 0.0097(15) 0.0113(17) 0.0116(17) 0.0006(11) -0.0030(12) 0.0024(12)
F1 F1- 0.0097(15) 0.0113(17) 0.0116(17) 0.0006(11) -0.0030(12) 0.0024(12)
#End of TTdata_247030-ICSD
#
