(C) 2022 by FIZ Karlsruhe - Leibniz Institute for Information Infrastructure.  All rights reserved.
data_144214-ICSD
_database_code_ICSD 144214
_audit_creation_date 2022-08-01
_chemical_name_common
'Bis(triammine thallium(I)) hexafluorido silicate(IV)-ammonia(1/2)'
_chemical_formula_structural '(Tl2 (N H3)6) (Si F6) (N H3)2'
_chemical_formula_sum 'H24 F6 N8 Si1 Tl2'
_exptl_crystal_density_diffrn 2.8
_diffrn_ambient_temperature 100.
_citation_title

;
Reactions of [SiF\(_4\)(NH\(_3\))\(_2\)] with fluorides AF (A = Li-Cs, Tl,
NH\(_4\)) in liquid NH\(_3\). A [NH\(_4\)(NH\(_3\))\(_2\)]\(^+\) cation and a
thallophilic interaction in [Tl\(_2\)(NH\(_3\))\(_6\)]\(^{2+}\)
;
loop_
_citation_id
_citation_journal_full
_citation_year
_citation_journal_volume
_citation_page_first
_citation_page_last
_citation_journal_id_ASTM
primary 'Inorganic Chemistry' 2021 60 15031 15040 INOCAJ
loop_
_citation_author_citation_id
_citation_author_name
primary 'Rudel, Stefan S.'
primary 'Graubner, Tim'
primary 'Karttunen, Antti J.'
primary 'Dehnen, Stefanie'
primary 'Kraus, Florian'
_cell_length_a 12.118(2)
_cell_length_b 7.3493(15)
_cell_length_c 9.762(2)
_cell_angle_alpha 90
_cell_angle_beta 110.24(3)
_cell_angle_gamma 90
_cell_volume 815.7
_cell_formula_units_Z 2
_space_group_name_H-M_alt 'C 1 2/m 1'
_space_group_IT_number 12
loop_
_space_group_symop_id
_space_group_symop_operation_xyz
1 '-x, y, -z'
2 '-x, -y, -z'
3 'x, -y, z'
4 'x, y, z'
5 '-x+1/2, y+1/2, -z'
6 '-x+1/2, -y+1/2, -z'
7 'x+1/2, -y+1/2, z'
8 'x+1/2, y+1/2, z'
loop_
_atom_type_symbol
_atom_type_oxidation_number
Tl1+ 1
Si4+ 4
F1- -1
N3- -3
H1+ 1
N3- -3
H1+ 1
N3- -3
H1+ 1
loop_
_atom_site_label
_atom_site_type_symbol
_atom_site_symmetry_multiplicity
_atom_site_Wyckoff_symbol
_atom_site_fract_x
_atom_site_fract_y
_atom_site_fract_z
_atom_site_U_iso_or_equiv
_atom_site_occupancy
Tl1 Tl1+ 4 i 0.49702(2) 0.5 0.80132(2) 0.02035(6) 1
Si1 Si4+ 2 d 0. 0.5 0.5 0.0118(2) 1
F1 F1- 8 j 0.05927(15) 0.6625(2) 0.62629(17) 0.0206(3) 1
F2 F1- 4 i 0.1225(2) 0.5 0.4552(3) 0.0243(5) 1
N1 N3- 4 i 0.3812(3) 0.5 0.5313(3) 0.0169(5) 1
H1 H1+ 8 j 0.396(4) 0.401(6) 0.492(5) 0.037(12) 1
H2 H1+ 4 i 0.304(5) 0.5 0.530(7) 0.026(14) 1
N2 N3- 8 j 0.3318(2) 0.2582(3) 0.7696(3) 0.0233(4) 1
H3 H1+ 8 j 0.329(5) 0.197(7) 0.838(6) 0.047(14) 1
H4 H1+ 8 j 0.341(5) 0.191(7) 0.710(6) 0.040(12) 1
H5 H1+ 8 j 0.257(5) 0.306(7) 0.735(6) 0.039(12) 1
N3 N3- 4 i 0.1533(10) 0.5 0.9432(7) 0.029(2) 0.57(2)
N4 N3- 4 i 0.0867(12) 0.5 0.9397(9) 0.025(3) 0.43(2)
loop_
_atom_site_aniso_label
_atom_site_aniso_type_symbol
_atom_site_aniso_U_11
_atom_site_aniso_U_22
_atom_site_aniso_U_33
_atom_site_aniso_U_12
_atom_site_aniso_U_13
_atom_site_aniso_U_23
Tl1 Tl1+ 0.01691(8) 0.02150(8) 0.01808(7) 0. 0.00026(5) 0.
Si1 Si4+ 0.0106(5) 0.0105(5) 0.0147(5) 0. 0.0048(4) 0.
F1 F1- 0.0259(8) 0.0138(6) 0.0189(7) -0.0022(5) 0.0038(6) -0.0031(5)
F2 F1- 0.0141(10) 0.0344(12) 0.0281(11) 0. 0.0121(9) 0.
N1 N3- 0.0140(13) 0.0170(12) 0.0194(13) 0. 0.0052(11) 0.
N2 N3- 0.0262(12) 0.0196(9) 0.0239(11) -0.0015(8) 0.0084(10) 0.0011(8)
N3 N3- 0.033(6) 0.035(3) 0.016(3) 0. 0.007(3) 0.
N4 N3- 0.025(7) 0.027(4) 0.016(3) 0. -0.001(3) 0.
#End of TTdata_144214-ICSD
#
