(C) 2022 by FIZ Karlsruhe - Leibniz Institute for Information Infrastructure.  All rights reserved.
data_427476-ICSD
_database_code_ICSD 427476
_audit_creation_date 2014-08-01
_chemical_name_common 'Europium hydride chloride (2/3/1)'
_chemical_formula_structural 'Eu2 H3 Cl'
_chemical_formula_sum 'H3 Cl1 Eu2'
_chemical_name_structure_type Ba2H3Cl
_exptl_crystal_density_diffrn 5.62
_diffrn_ambient_temperature 293.
_citation_title

;
Two ternary mixed-anion chlorides with divalent europium: Eu2 H3 Cl and Eu7
F12 Cl2
;
loop_
_citation_id
_citation_journal_full
_citation_year
_citation_journal_volume
_citation_page_first
_citation_page_last
_citation_journal_id_ASTM
primary 'Zeitschrift fuer Anorganische und Allgemeine Chemie (1950) (DE)' 2014
640 1254 1259 ZAACAB
loop_
_citation_author_citation_id
_citation_author_name
primary 'Reckeweg, Olaf'
primary 'DiSalvo, Francis J.'
primary 'Wolf, Sarah'
primary 'Schleid, Thomas'
_cell_length_a 4.0967(4)
_cell_length_b 4.0967(4)
_cell_length_c 6.9618(7)
_cell_angle_alpha 90.
_cell_angle_beta 90.
_cell_angle_gamma 120.
_cell_volume 101.18
_cell_formula_units_Z 1
_space_group_name_H-M_alt 'P -3 m 1'
_space_group_IT_number 164
loop_
_space_group_symop_id
_space_group_symop_operation_xyz
1 'x-y, -y, -z'
2 '-x, -x+y, -z'
3 'y, x, -z'
4 'x-y, x, -z'
5 'y, -x+y, -z'
6 '-x, -y, -z'
7 '-x+y, y, z'
8 'x, x-y, z'
9 '-y, -x, z'
10 '-x+y, -x, z'
11 '-y, x-y, z'
12 'x, y, z'
loop_
_atom_type_symbol
_atom_type_oxidation_number
Eu2+ 2
H1- -1
Cl1- -1
loop_
_atom_site_label
_atom_site_type_symbol
_atom_site_symmetry_multiplicity
_atom_site_Wyckoff_symbol
_atom_site_fract_x
_atom_site_fract_y
_atom_site_fract_z
_atom_site_U_iso_or_equiv
_atom_site_occupancy
Eu1 Eu2+ 2 d 0.3333 0.6667 0.29265(6) 0.01696(17) 1
H1 H1- 1 b 0. 0. 0.5 0.059 1
H2 H1- 2 d 0.3333 0.6667 0.638(6) 0.059 1
Cl1 Cl1- 1 a 0. 0. 0. 0.0148(5) 1
loop_
_atom_site_aniso_label
_atom_site_aniso_type_symbol
_atom_site_aniso_U_11
_atom_site_aniso_U_22
_atom_site_aniso_U_33
_atom_site_aniso_U_12
_atom_site_aniso_U_13
_atom_site_aniso_U_23
Eu1 Eu2+ 0.0202(2) 0.0202(2) 0.0104(2) 0.01012(10) 0. 0.
Cl1 Cl1- 0.0161(8) 0.0161(8) 0.0122(11) 0.0081(4) 0. 0.
#End of TTdata_427476-ICSD
#
