(C) 2022 by FIZ Karlsruhe - Leibniz Institute for Information Infrastructure.  All rights reserved.
data_411749-ICSD
_database_code_ICSD 411749
_audit_creation_date 2005-04-01
_audit_update_record 2012-02-01
_chemical_name_common 'Dierbium tris(selenate(IV))'
_chemical_formula_structural 'Er2 (Se O3)3'
_chemical_formula_sum 'Er2 O9 Se3'
_chemical_name_structure_type Er2(SO3)3
_exptl_crystal_density_diffrn 5.66
_citation_title
'Synthesis and crystal structures of Er2 (Se O3)3 and Dy3 (Se O3)4 F'
loop_
_citation_id
_citation_journal_full
_citation_year
_citation_journal_volume
_citation_page_first
_citation_page_last
_citation_journal_id_ASTM
primary 'Journal of Solid State Chemistry' 2002 167 113 118 JSSCBI
loop_
_citation_author_citation_id
_citation_author_name
primary 'Kruegermann, I.'
primary 'Wickleder, M.S.'
_cell_length_a 6.982(1)
_cell_length_b 8.006(1)
_cell_length_c 8.950(1)
_cell_angle_alpha 71.38(1)
_cell_angle_beta 70.13(1)
_cell_angle_gamma 65.87(1)
_cell_volume 419.8
_cell_formula_units_Z 2
_space_group_name_H-M_alt 'P -1'
_space_group_IT_number 2
loop_
_space_group_symop_id
_space_group_symop_operation_xyz
1 '-x, -y, -z'
2 'x, y, z'
loop_
_atom_type_symbol
_atom_type_oxidation_number
Er3+ 3
Se4+ 4
O2- -2
loop_
_atom_site_label
_atom_site_type_symbol
_atom_site_symmetry_multiplicity
_atom_site_Wyckoff_symbol
_atom_site_fract_x
_atom_site_fract_y
_atom_site_fract_z
_atom_site_U_iso_or_equiv
_atom_site_occupancy
Er1 Er3+ 2 i .25922(5) .26415(5) .20101(5) .0094(1) 1.
Er2 Er3+ 2 i .66671(6) .27064(5) .41072(5) .0096(1) 1.
Se1 Se4+ 2 i .1129(1) .2429(1) .5861(1) .0102(2) 1.
Se2 Se4+ 2 i .8541(1) .2474(1) .0345(1) .0098(2) 1.
Se3 Se4+ 2 i .5718(3) .2244(2) .8015(2) .0225(3) 1.
O1 O2- 2 i .3409(9) .2540(10) .4377(9) .0150(2) 1.
O2 O2- 2 i .9654(10) .2968(11) .4462(9) .0190(1) 1.
O3 O2- 2 i .1574(12) .0143(11) .6554(9) .0220(2) 1.
O4 O2- 2 i .9338(9) .3048(10) .1674(8) .0140(1) 1.
O5 O2- 2 i .5946(9) .2870(10) .1481(9) .0170(1) 1.
O6 O2- 2 i .8330(10) .4303(9) .8822(9) .0150(1) 1.
O7 O2- 2 i .4838(10) .4053(9) .6500(9) .0170(1) 1.
O8 O2- 2 i .6407(11) .0571(9) .6942(8) .0120(1) 1.
O9 O2- 2 i .3482(11) .2088(11) .9463(9) .0180(2) 1.
#End of TTdata_411749-ICSD
#
