(C) 2022 by FIZ Karlsruhe - Leibniz Institute for Information Infrastructure.  All rights reserved.
data_19309-ICSD
_database_code_ICSD 19309
_audit_creation_date 2021-08-01
_chemical_name_common 'Dodecabarium lithium tetrafluoride heptaborate'
_chemical_formula_structural 'Ba12 (B O3)6 (B O3) (Li F4)'
_chemical_formula_sum 'B7 Ba12 F4 Li1 O21'
_exptl_crystal_density_diffrn 5.19
_diffrn_ambient_temperature 293.
_citation_title

;
Crystal chemical design of functional fluoride borates with  antizeolite 
structure
;
loop_
_citation_id
_citation_journal_full
_citation_year
_citation_journal_volume
_citation_page_first
_citation_page_last
_citation_journal_id_ASTM
primary 'Crystal Growth & Design' 2020 20 4100 4107 CGDEFU
loop_
_citation_author_citation_id
_citation_author_name
primary 'Bekker, Tatyana'
primary 'Solntsev, Vladimir'
primary 'Yelisseyev, Alexander'
primary 'Davydov, Alexey'
primary 'Rashchenko, Sergey'
_cell_length_a 13.5387(2)
_cell_length_b 13.5387(2)
_cell_length_c 14.9516(3)
_cell_angle_alpha 90
_cell_angle_beta 90
_cell_angle_gamma 90
_cell_volume 2740.57
_cell_formula_units_Z 4
_space_group_name_H-M_alt 'P 42/m b c'
_space_group_IT_number 135
loop_
_space_group_symop_id
_space_group_symop_operation_xyz
1 '-y+1/2, -x+1/2, z+1/2'
2 '-x+1/2, y+1/2, z'
3 'y, -x, z+1/2'
4 '-x, -y, z'
5 '-y+1/2, -x+1/2, -z+1/2'
6 '-x+1/2, y+1/2, -z'
7 'y, -x, -z+1/2'
8 '-x, -y, -z'
9 'y+1/2, x+1/2, -z+1/2'
10 'x+1/2, -y+1/2, -z'
11 '-y, x, -z+1/2'
12 'x, y, -z'
13 'y+1/2, x+1/2, z+1/2'
14 'x+1/2, -y+1/2, z'
15 '-y, x, z+1/2'
16 'x, y, z'
loop_
_atom_type_symbol
_atom_type_oxidation_number
Ba2+ 2
F1- -1
O2- -2
B3+ 3
O2- -2
B3+ 3
O2- -2
Li1+ 1
loop_
_atom_site_label
_atom_site_type_symbol
_atom_site_symmetry_multiplicity
_atom_site_Wyckoff_symbol
_atom_site_fract_x
_atom_site_fract_y
_atom_site_fract_z
_atom_site_U_iso_or_equiv
_atom_site_occupancy
Ba1 Ba2+ 8 h 0.68024(5) 0.33125(6) 0.5 0.0089(2) 1
Ba2 Ba2+ 16 i 0.43601(4) 0.20141(4) 0.36736(4) 0.0101(2) 1
Ba3 Ba2+ 16 i 0.79664(4) 0.57703(4) 0.63438(4) 0.0113(2) 1
Ba4 Ba2+ 8 e 0.5 0.5 0.36658(6) 0.0148(3) 1
F1 F1- 8 h 0.5745(5) 0.1388(6) 0.5 0.016(2) 1
F2 F1- 8 h 0.8698(6) 0.4326(5) 0.5 0.021(3) 1
O1 O2- 8 h 0.4805(6) 0.3541(6) 0.5 0.011(3) 1
O2 O2- 8 h 0.8129(7) 0.1974(7) 0.5 0.014(2) 1
O3 O2- 8 h 0.6466(6) 0.5239(6) 0.5 0.0114(19) 1
O4 O2- 16 i 0.6238(5) 0.2673(5) 0.3306(5) 0.021(2) 1
O5 O2- 16 i 0.7523(5) 0.3887(5) 0.6795(5) 0.020(2) 1
O6 O2- 16 i 0.6186(5) 0.6263(5) 0.2911(5) 0.015(2) 1
B1 B3+ 8 h 0.6190(11) 0.6248(11) 0.5 0.008(3) 1
O7 O2- 16 i 0.5459(9) 0.0742(9) 0.2760(9) 0.017(3) 0.5
B2 B3+ 16 i 0.6536(8) 0.6666(8) 0.2130(7) 0.012(3) 1
B3 B3+ 8 f 0.5 0 0.2307(17) 0.004(6) 0.5
O8 O2- 8 f 0.5 0 0.1384(13) 0.019(6) 0.5
Li1 Li1+ 8 f 1 0.5 0.484(3) 0.016(12) 0.5
loop_
_atom_site_aniso_label
_atom_site_aniso_type_symbol
_atom_site_aniso_U_11
_atom_site_aniso_U_22
_atom_site_aniso_U_33
_atom_site_aniso_U_12
_atom_site_aniso_U_13
_atom_site_aniso_U_23
Ba1 Ba2+ 0.0081(4) 0.0077(4) 0.0108(4) 0.0022(3) 0 0
Ba2 Ba2+ 0.0107(4) 0.0104(4) 0.0091(4) 0.0004(2) -0.0002(2) -0.0011(2)
Ba3 Ba2+ 0.0107(4) 0.0105(3) 0.0127(4) -0.0016(2) -0.0006(2) 0.0006(2)
Ba4 Ba2+ 0.0159(5) 0.0188(5) 0.0098(5) -0.0062(4) 0 0
F1 F1- 0.014(4) 0.014(4) 0.020(5) 0.001(3) 0 0
F2 F1- 0.011(4) 0.011(4) 0.039(6) 0.001(3) 0 0
O1 O2- 0.008(4) 0.006(4) 0.019(5) -0.001(3) 0 0
O4 O2- 0.023(4) 0.026(4) 0.015(4) -0.005(3) -0.002(3) 0.001(3)
O5 O2- 0.018(4) 0.016(4) 0.026(4) 0.000(3) 0.012(3) 0.001(3)
O6 O2- 0.017(4) 0.014(3) 0.015(4) 0.006(3) 0.001(3) 0.001(3)
B2 B3+ 0.011(5) 0.017(6) 0.006(5) -0.010(5) 0.004(4) -0.006(4)
O8 O2- 0.036(12) 0.013(10) 0.007(11) -0.003(8) 0 0
#End of TTdata_19309-ICSD
#
