(C) 2022 by FIZ Karlsruhe - Leibniz Institute for Information Infrastructure.  All rights reserved.
data_45754-ICSD
_database_code_ICSD 45754
_audit_creation_date 2022-08-01
_chemical_name_common 'Lanthanum scandium orthoborate'
_chemical_formula_structural '(La0.9 Sc0.1) (B O3)'
_chemical_formula_sum 'B1 La0.9 O3 Sc0.1'
_chemical_name_structure_type Aragonite#CaCO3(oP20)
_exptl_crystal_density_diffrn 5.05
_citation_title

;
Study of RBO$_3$-ScBO$_3$ phase diagrams and RSc$_3$(BO$_3$)$_4$ orthoborates
(R = La, Pr and Nd)
;
loop_
_citation_id
_citation_journal_full
_citation_year
_citation_journal_volume
_citation_page_first
_citation_page_last
_citation_journal_id_ASTM
primary 'Journal of Alloys and Compounds' 2022 905 '' '' JALCEU
loop_
_citation_author_citation_id
_citation_author_name
primary 'Jamous, A.Y.'
primary 'Kuznetsov, A.B.'
primary 'Kokh, K.A.'
primary 'Svetlichnyi, V.A.'
primary 'Kononova, N.G.'
primary 'Shevchenko, V.S.'
primary 'Ryadun, A.A.'
primary 'Kokh, A.E.'
_cell_length_a 5.8732(9)
_cell_length_b 5.1059(7)
_cell_length_c 8.2538(12)
_cell_angle_alpha 90.
_cell_angle_beta 90.
_cell_angle_gamma 90.
_cell_volume 247.51
_cell_formula_units_Z 4
_space_group_name_H-M_alt 'P n m a'
_space_group_IT_number 62
loop_
_space_group_symop_id
_space_group_symop_operation_xyz
1 'x+1/2, y, -z+1/2'
2 'x, -y+1/2, z'
3 '-x+1/2, y+1/2, z+1/2'
4 '-x, -y, -z'
5 '-x+1/2, -y, z+1/2'
6 '-x, y+1/2, -z'
7 'x+1/2, -y+1/2, -z+1/2'
8 'x, y, z'
loop_
_atom_type_symbol
_atom_type_oxidation_number
Sc3+ 3
La3+ 3
B3+ 3
O2- -2
loop_
_atom_site_label
_atom_site_type_symbol
_atom_site_symmetry_multiplicity
_atom_site_Wyckoff_symbol
_atom_site_fract_x
_atom_site_fract_y
_atom_site_fract_z
_atom_site_U_iso_or_equiv
_atom_site_occupancy
Sc1 Sc3+ 4 c 0.2431(5) 0.25 0.5844(2) 0.00319(3) 0.104(3)
La1 La3+ 4 c 0.2431(5) 0.25 0.5844(2) 0.00319(3) 0.896(3)
B1 B3+ 4 c 0.553(4) 0.25 0.264(4) 0.046(8) 1
O1 O2- 4 c 0.1079(2) 0.25 0.0605(2) 0.0114(4) 1
O2 O2- 8 d 0.5920(1) 0.0191(2) 0.1715(1) 0.0085(2) 1
#End of TTdata_45754-ICSD
#
