(C) 2022 by FIZ Karlsruhe - Leibniz Institute for Information Infrastructure.  All rights reserved.
data_46288-ICSD
_database_code_ICSD 46288
_audit_creation_date 2022-08-01
_chemical_name_common 'Dilithium ditungstate'
_chemical_formula_structural 'Li2 W2 O7'
_chemical_formula_sum 'Li2 O7 W2'
_exptl_crystal_density_diffrn 6.05
_diffrn_ambient_temperature 296.
_citation_title

;
New insights into alkali metal tungstates. The high temperature polymorphism
of Na\(_2\)WO\(_4\), the new polymorph Li\(_2\)WO\(_4\)-V and the redetermined
crystal structure of Li\(_2\)W\(_2\)O\(_7\)
;
loop_
_citation_id
_citation_journal_full
_citation_year
_citation_journal_volume
_citation_page_first
_citation_page_last
_citation_journal_id_ASTM
primary 'Zeitschrift fuer Anorganische und Allgemeine Chemie' 2022 648 1 7
ZAACAB
loop_
_citation_author_citation_id
_citation_author_name
primary 'Hämmer, Matthias'
primary 'Höppe, Henning A.'
_cell_length_a 5.05570(10)
_cell_length_b 7.0500(2)
_cell_length_c 8.2903(2)
_cell_angle_alpha 69.6459(8)
_cell_angle_beta 77.8684(8)
_cell_angle_gamma 85.4229(8)
_cell_volume 270.84
_cell_formula_units_Z 2
_space_group_name_H-M_alt 'P -1'
_space_group_IT_number 2
loop_
_space_group_symop_id
_space_group_symop_operation_xyz
1 '-x, -y, -z'
2 'x, y, z'
loop_
_atom_type_symbol
_atom_type_oxidation_number
Li1+ 1
W6+ 6
O2- -2
Li1+ 1
loop_
_atom_site_label
_atom_site_type_symbol
_atom_site_symmetry_multiplicity
_atom_site_Wyckoff_symbol
_atom_site_fract_x
_atom_site_fract_y
_atom_site_fract_z
_atom_site_U_iso_or_equiv
_atom_site_occupancy
Li1 Li1+ 2 i -0.356(3) 0.9957(19) 0.272(2) 0.015(2) 0.73(5)
Li2 Li1+ 2 i -0.402(7) 0.963(6) 0.328(5) 0.015(2) 0.27(5)
W1 W6+ 2 i 0.68401(2) 0.45131(2) 0.33488(2) 0.00551(3) 1
W2 W6+ 2 i 0.19663(2) 0.75180(2) 0.17837(2) 0.00607(3) 1
O1 O2- 2 i 0.5463(3) 0.6037(3) 0.1306(2) 0.0089(3) 1
O2 O2- 2 i 0.6789(3) 0.4153(3) 0.5760(2) 0.0077(3) 1
O3 O2- 2 i -0.1502(3) 0.7495(3) 0.3006(2) 0.0089(3) 1
O4 O2- 2 i 1.0345(3) 0.4357(3) 0.2358(2) 0.0097(3) 1
O5 O2- 2 i 0.1451(4) 0.8119(3) -0.0358(2) 0.0115(3) 1
O6 O2- 2 i 0.3202(4) 0.9757(3) 0.1823(3) 0.0116(3) 1
O7 O2- 2 i 0.5726(4) 0.2108(3) 0.3729(3) 0.0136(4) 1
Li3 Li1+ 2 i 1.2027(11) 0.2618(8) 0.0988(7) 0.0188(10) 1
loop_
_atom_site_aniso_label
_atom_site_aniso_type_symbol
_atom_site_aniso_U_11
_atom_site_aniso_U_22
_atom_site_aniso_U_33
_atom_site_aniso_U_12
_atom_site_aniso_U_13
_atom_site_aniso_U_23
Li1 Li1+ 0.013(4) 0.021(4) 0.016(6) 0.003(3) -0.002(4) -0.014(5)
Li2 Li1+ 0.013(4) 0.021(4) 0.016(6) 0.003(3) -0.002(4) -0.014(5)
W1 W6+ 0.00551(4) 0.00545(4) 0.00551(4) 0.00035(3) -0.00092(3) -0.00195(3)
W2 W6+ 0.00523(4) 0.00582(4) 0.00669(4) -0.00007(3) -0.00152(3) -0.00133(3)
O1 O2- 0.0076(7) 0.0116(8) 0.0076(7) 0.0015(6) -0.0015(6) -0.0035(6)
O2 O2- 0.0068(7) 0.0094(8) 0.0057(7) 0.0025(6) -0.0008(6) -0.0017(6)
O3 O2- 0.0071(7) 0.0077(8) 0.0114(8) 0.0005(6) -0.0007(6) -0.0035(6)
O4 O2- 0.0097(8) 0.0089(8) 0.0104(8) 0.0010(6) -0.0010(6) -0.0039(7)
O5 O2- 0.0120(8) 0.0137(9) 0.0087(8) 0.0005(7) -0.0025(6) -0.0035(7)
O6 O2- 0.0110(8) 0.0096(8) 0.0148(9) -0.0006(6) -0.0036(7) -0.0041(7)
O7 O2- 0.0155(9) 0.0100(8) 0.0151(9) -0.0027(7) 0.0010(7) -0.0056(7)
Li3 Li1+ 0.022(3) 0.013(2) 0.017(2) 0.0029(19) 0.0020(19) -0.0035(19)
#End of TTdata_46288-ICSD
#
