(C) 2022 by FIZ Karlsruhe - Leibniz Institute for Information Infrastructure.  All rights reserved.
data_115604-ICSD
_database_code_ICSD 115604
_audit_creation_date 2022-08-01
_chemical_name_common 'Dilithium hexafluoromolybdate(IV)'
_chemical_formula_structural 'Li2 (Mo F6)'
_chemical_formula_sum 'F6 Li2 Mo1'
_chemical_name_structure_type Rosiaite#PbSb2O6
_exptl_crystal_density_diffrn 3.85
_diffrn_ambient_temperature 300.
_citation_title

;
Exploratory synthesis for complex metal fluorides using solid-state fluorine
sources
;
loop_
_citation_id
_citation_journal_full
_citation_year
_citation_journal_volume
_citation_page_first
_citation_page_last
_citation_journal_id_ASTM
primary 'Inorganic Chemistry' 2022 61 1728 1734 INOCAJ
loop_
_citation_author_citation_id
_citation_author_name
primary 'Inaguma, Yoshiyuki'
primary 'Oyanagi, Moemi'
primary 'Ueda, Koichiro'
_cell_length_a 4.94524(17)
_cell_length_b 4.94524(17)
_cell_length_c 4.55858(12)
_cell_angle_alpha 90
_cell_angle_beta 90
_cell_angle_gamma 120
_cell_volume 96.54
_cell_formula_units_Z 1
_space_group_name_H-M_alt 'P -3 1 m'
_space_group_IT_number 162
loop_
_space_group_symop_id
_space_group_symop_operation_xyz
1 '-x+y, y, -z'
2 'x, x-y, -z'
3 '-y, -x, -z'
4 'x-y, x, -z'
5 'y, -x+y, -z'
6 '-x, -y, -z'
7 'x-y, -y, z'
8 '-x, -x+y, z'
9 'y, x, z'
10 '-x+y, -x, z'
11 '-y, x-y, z'
12 'x, y, z'
loop_
_atom_type_symbol
_atom_type_oxidation_number
Li1+ 1
Mo4+ 4
F1- -1
loop_
_atom_site_label
_atom_site_type_symbol
_atom_site_symmetry_multiplicity
_atom_site_Wyckoff_symbol
_atom_site_fract_x
_atom_site_fract_y
_atom_site_fract_z
_atom_site_B_iso_or_equiv
_atom_site_occupancy
Li1 Li1+ 2 d 0.333333 0.666667 0.5 1.366 1.
Mo1 Mo4+ 1 a 0. 0. 0. 0.696 1.
F1 F1- 6 k 0.3164(6) 0. 0.2511(7) 1.033 1.
#End of TTdata_115604-ICSD
#
