(C) 2022 by FIZ Karlsruhe - Leibniz Institute for Information Infrastructure.  All rights reserved.
data_413966-ICSD
_database_code_ICSD 413966
_audit_creation_date 2006-10-01
_audit_update_record 2007-08-01
_chemical_name_common 'Lithium scandium tetrafluoride'
_chemical_formula_structural 'Li Sc F4'
_chemical_formula_sum 'F4 Li1 Sc1'
_chemical_name_structure_type Scheelite#CaWO4
_exptl_crystal_density_diffrn 3.4
_citation_title

;
Synthesis and structures of Li3 Sc F6 and high pressure Li Sc F4, luminescence
properties of Li Sc F4, a new phase in the system Li F - Sc F3
;
loop_
_citation_id
_citation_journal_full
_citation_year
_citation_journal_volume
_citation_page_first
_citation_page_last
_citation_journal_id_ASTM
primary 'Journal of Solid State Chemistry' 2005 178 2620 2625 JSSCBI
loop_
_citation_author_citation_id
_citation_author_name
primary 'Tyagi, A.K.'
primary 'Koehler, J.'
primary 'Balog, P.'
primary 'Weber, J.'
_cell_length_a 4.9806(1)
_cell_length_b 4.9806(1)
_cell_length_c 10.075(1)
_cell_angle_alpha 90.
_cell_angle_beta 90.
_cell_angle_gamma 90.
_cell_volume 249.92
_cell_formula_units_Z 4
_space_group_name_H-M_alt 'I 41/a Z'
_space_group_IT_number 88
loop_
_space_group_symop_id
_space_group_symop_operation_xyz
1 '-y+3/4, x+3/4, -z+3/4'
2 'y+1/4, -x+3/4, -z+3/4'
3 'x, y+1/2, -z'
4 '-x, -y, -z'
5 'y+1/4, -x+1/4, z+1/4'
6 '-y+3/4, x+1/4, z+1/4'
7 '-x, -y+1/2, z'
8 'x, y, z'
9 '-y+1/4, x+1/4, -z+1/4'
10 'y+3/4, -x+1/4, -z+1/4'
11 'x+1/2, y, -z+1/2'
12 '-x+1/2, -y+1/2, -z+1/2'
13 'y+3/4, -x+3/4, z+3/4'
14 '-y+1/4, x+3/4, z+3/4'
15 '-x+1/2, -y, z+1/2'
16 'x+1/2, y+1/2, z+1/2'
loop_
_atom_type_symbol
_atom_type_oxidation_number
Sc3+ 3
F1- -1
Li1+ 1
loop_
_atom_site_label
_atom_site_type_symbol
_atom_site_symmetry_multiplicity
_atom_site_Wyckoff_symbol
_atom_site_fract_x
_atom_site_fract_y
_atom_site_fract_z
_atom_site_U_iso_or_equiv
_atom_site_occupancy
Sc1 Sc3+ 4 b 0.5 0.75 0.125 0.0041(6) 1.
F1 F1- 16 f 0.2894(4) 0.0760(4) 0.0430(2) 0.0126(9) 1.
Li1 Li1+ 4 a 0 0.25 0.125 0.01267 1.
#End of TTdata_413966-ICSD
#
