(C) 2022 by FIZ Karlsruhe - Leibniz Institute for Information Infrastructure.  All rights reserved.
data_32842-ICSD
_database_code_ICSD 32842
_audit_creation_date 2022-02-01
_chemical_name_common 'Trilithium uranium heptafluoride'
_chemical_formula_structural 'Li3 U F7'
_chemical_formula_sum 'F7 Li3 U1'
_exptl_crystal_density_diffrn 5.44
_diffrn_ambient_temperature 10.
_citation_title

;
Preparation, thermal stability and crystal structure of Li$_3$UF$_7$. New
insights into LiF-UF$_4$ binary phase diagram
;
loop_
_citation_id
_citation_journal_full
_citation_year
_citation_journal_volume
_citation_page_first
_citation_page_last
_citation_journal_id_ASTM
primary 'Journal of Alloys and Compounds' 2021 856 '' '' JALCEU
loop_
_citation_author_citation_id
_citation_author_name
primary 'Kolay, Siddhartha'
primary 'Achary, S. Nagabhusan'
primary 'Shinde, A.B.'
primary 'Ram Krishna, P. Siva'
primary 'Basu, Manidipa'
primary 'Mishra, Ratikant'
primary 'Tyagi, Avesh K.'
_cell_length_a 8.674(2)
_cell_length_b 8.645(2)
_cell_length_c 12.750(1)
_cell_angle_alpha 90.
_cell_angle_beta 90.
_cell_angle_gamma 90.
_cell_volume 956.08
_cell_formula_units_Z 8
_space_group_name_H-M_alt 'C c c a Z'
_space_group_IT_number 68
loop_
_space_group_symop_id
_space_group_symop_operation_xyz
1 'x, y+1/2, -z'
2 '-x+1/2, y+1/2, -z+1/2'
3 'x+1/2, -y, -z+1/2'
4 '-x, -y, -z'
5 '-x, -y+1/2, z'
6 'x+1/2, -y+1/2, z+1/2'
7 '-x+1/2, y, z+1/2'
8 'x, y, z'
9 'x+1/2, y, -z'
10 '-x, y, -z+1/2'
11 'x, -y+1/2, -z+1/2'
12 '-x+1/2, -y+1/2, -z'
13 '-x+1/2, -y, z'
14 'x, -y, z+1/2'
15 '-x, y+1/2, z+1/2'
16 'x+1/2, y+1/2, z'
loop_
_atom_type_symbol
_atom_type_oxidation_number
U4+ 4
F1- -1
Li1+ 1
loop_
_atom_site_label
_atom_site_type_symbol
_atom_site_symmetry_multiplicity
_atom_site_Wyckoff_symbol
_atom_site_fract_x
_atom_site_fract_y
_atom_site_fract_z
_atom_site_B_iso_or_equiv
_atom_site_occupancy
U1 U4+ 8 h 0.25 0 0.1880(3) 1.41(4) 1.
F1 F1- 8 h 0.25 0 0.3739(5) 1.41(4) 1.
F2 F1- 16 i 0.0585(13) 0.0938(11) 0.5829(9) 1.41(4) 1.
F3 F1- 16 i 0.1468(12) 0.3133(12) 0.4270(8) 1.41(4) 1.
F4 F1- 8 f 0 0.4350(19) 0.25 1.41(4) 1.
F5 F1- 8 e 0.3159(18) 0.25 0.25 1.41(4) 1.
Li1 Li1+ 16 i 0.3743(33) 0.2243(30) 0.4312(21) 1.41(4) 0.75
Li2 Li1+ 16 i 0.0666(33) 0.0761(38) 0.4099(20) 1.41(4) 0.75
#End of TTdata_32842-ICSD
#
