(C) 2022 by FIZ Karlsruhe - Leibniz Institute for Information Infrastructure.  All rights reserved.
data_237057-ICSD
_database_code_ICSD 237057
_audit_creation_date 2015-02-01
_chemical_name_common 'Pentamagnesium tris(borate) fluoride'
_chemical_formula_structural 'Mg5 (B O3)3 F'
_chemical_formula_sum 'B3 F1 Mg5 O9'
_exptl_crystal_density_diffrn 3.1
_citation_title

;
Reinvestigation and characterization of the magnesium borate fluoride Mg5 (B
O3) F
;
loop_
_citation_id
_citation_journal_full
_citation_year
_citation_journal_volume
_citation_page_first
_citation_page_last
_citation_journal_id_ASTM
primary 'Zeitschrift fuer Anorganische und Allgemeine Chemie (1950) (DE)' 2014
640 2013 2018 ZAACAB
loop_
_citation_author_citation_id
_citation_author_name
primary 'Bai, Chunyan'
primary 'Han, Shujuan'
primary 'Pan, Shilie'
primary 'Bian, Qiang'
primary 'Yang, Zhihua'
primary 'Zhang, Xingwen'
primary 'Lin, Xiaoxia'
primary 'Jing, Qun'
_cell_length_a 10.068(5)
_cell_length_b 14.858(7)
_cell_length_c 4.540(2)
_cell_angle_alpha 90.
_cell_angle_beta 90.
_cell_angle_gamma 90.
_cell_volume 679.14
_cell_formula_units_Z 4
_space_group_name_H-M_alt 'P n m a'
_space_group_IT_number 62
loop_
_space_group_symop_id
_space_group_symop_operation_xyz
1 'x+1/2, y, -z+1/2'
2 'x, -y+1/2, z'
3 '-x+1/2, y+1/2, z+1/2'
4 '-x, -y, -z'
5 '-x+1/2, -y, z+1/2'
6 '-x, y+1/2, -z'
7 'x+1/2, -y+1/2, -z+1/2'
8 'x, y, z'
loop_
_atom_type_symbol
_atom_type_oxidation_number
Mg2+ 2
B3+ 3
O2- -2
F1- -1
loop_
_atom_site_label
_atom_site_type_symbol
_atom_site_symmetry_multiplicity
_atom_site_Wyckoff_symbol
_atom_site_fract_x
_atom_site_fract_y
_atom_site_fract_z
_atom_site_U_iso_or_equiv
_atom_site_occupancy
Mg1 Mg2+ 8 d 0.1515(1) 0.1488(1) 0.4899(1) 0.008(1) 1.
Mg2 Mg2+ 4 c 0.9199(9) 0.25 0.9969(2) 0.008(1) 1.
Mg3 Mg2+ 8 d 0.1316(1) 0.9428(9) 0.4997(1) 0.008(1) 1.
B1 B3+ 8 d 0.0741(2) 0.0758(1) 0.0363(5) 0.008(1) 1.
B2 B3+ 4 c 0.2776(3) 0.25 0.9530(7) 0.010(1) 1.
O1 O2- 8 d 0.9921(9) 0.1352(1) 0.1899(3) 0.008(1) 1.
O2 O2- 8 d 0.0542(1) 0.0543(1) 0.7438(3) 0.007(1) 1.
O3 O2- 8 d 0.2996(1) 0.1709(1) 0.7966(3) 0.008(1) 1.
O4 O2- 4 c 0.2465(2) 0.25 0.2490(4) 0.007(1) 1.
O5 O2- 8 d 0.1845(1) 0.0456(1) 0.1955(3) 0.007(1) 1.
F1 F1- 4 c 0.0581(2) 0.25 0.6871(4) 0.012(1) 1.
#End of TTdata_237057-ICSD
#
