(C) 2022 by FIZ Karlsruhe - Leibniz Institute for Information Infrastructure.  All rights reserved.
data_45756-ICSD
_database_code_ICSD 45756
_audit_creation_date 2022-08-01
_chemical_name_common 'Neodymium scandium orthoborate'
_chemical_formula_structural '(Nd0.9 Sc0.1) (B O3)'
_chemical_formula_sum 'B1 Nd0.9 O3 Sc0.1'
_chemical_name_structure_type DyBO3
_exptl_crystal_density_diffrn 5.28
_citation_title

;
Study of RBO$_3$-ScBO$_3$ phase diagrams and RSc$_3$(BO$_3$)$_4$ orthoborates
(R = La, Pr and Nd)
;
loop_
_citation_id
_citation_journal_full
_citation_year
_citation_journal_volume
_citation_page_first
_citation_page_last
_citation_journal_id_ASTM
primary 'Journal of Alloys and Compounds' 2022 905 '' '' JALCEU
loop_
_citation_author_citation_id
_citation_author_name
primary 'Jamous, A.Y.'
primary 'Kuznetsov, A.B.'
primary 'Kokh, K.A.'
primary 'Svetlichnyi, V.A.'
primary 'Kononova, N.G.'
primary 'Shevchenko, V.S.'
primary 'Ryadun, A.A.'
primary 'Kokh, A.E.'
_cell_length_a 6.3106(2)
_cell_length_b 6.5505(1)
_cell_length_c 6.5542(2)
_cell_angle_alpha 93.879(4)
_cell_angle_beta 107.587(4)
_cell_angle_gamma 107.159(4)
_cell_volume 243.09
_cell_formula_units_Z 4
_space_group_name_H-M_alt 'P -1'
_space_group_IT_number 2
loop_
_space_group_symop_id
_space_group_symop_operation_xyz
1 '-x, -y, -z'
2 'x, y, z'
loop_
_atom_type_symbol
_atom_type_oxidation_number
Sc3+ 3
Nd3+ 3
Sc3+ 3
Nd3+ 3
B3+ 3
O2- -2
loop_
_atom_site_label
_atom_site_type_symbol
_atom_site_symmetry_multiplicity
_atom_site_Wyckoff_symbol
_atom_site_fract_x
_atom_site_fract_y
_atom_site_fract_z
_atom_site_U_iso_or_equiv
_atom_site_occupancy
Sc1 Sc3+ 2 i 0.0548(8) 0.3420(5) 0.2633(3) 0.0032(2) 0.105(3)
Nd1 Nd3+ 2 i 0.0548(8) 0.3420(5) 0.2633(3) 0.0032(2) 0.895(3)
Sc2 Sc3+ 2 i 0.4433(7) 0.2185(3) 0.8089(3) 0.0018(2) 0.094(5)
Nd2 Nd3+ 2 i 0.4433(7) 0.2185(3) 0.8089(3) 0.0018(2) 0.906(2)
B1 B3+ 2 i 0.9790(1) 0.1876(3) 0.7947(3) 0.0104(3) 1
B2 B3+ 2 i 0.5426(4) 0.2019(6) 0.2180(6) 0.0104(3) 1
O1 O2- 2 i 0.6751(9) 0.1880(3) 0.2082(8) 0.0198(6) 1
O2 O2- 2 i 1.0105(2) 0.9555(2) 0.2213(5) 0.0198(6) 1
O3 O2- 2 i 0.3928(9) 0.3759(1) 0.1388(7) 0.0198(6) 1
O4 O2- 2 i 0.0693(4) 0.3017(2) 0.6365(9) 0.0198(6) 1
O5 O2- 2 i 0.4338(3) 0.1997(7) 0.4774(3) 0.0198(6) 1
O6 O2- 2 i 0.8337(9) 0.2350(3) 0.8486(4) 0.0198(6) 1
#End of TTdata_45756-ICSD
#
