(C) 2022 by FIZ Karlsruhe - Leibniz Institute for Information Infrastructure.  All rights reserved.
data_186935-ICSD
_database_code_ICSD 186935
_audit_creation_date 2013-08-01
_chemical_name_common 'Lithium sodium iron(II) phosphate fluoride'
_chemical_formula_structural 'Li Na Fe (P O4) F'
_chemical_formula_sum 'F1 Fe1 Li1 Na1 O4 P1'
_chemical_name_structure_type Li2NiFPO4
_exptl_crystal_density_diffrn 3.32
_diffrn_ambient_temperature 300.
_citation_title

;
Synthesis and characterization of the crystal structure, the magnetic and the
electrochemical properties of the new fluorophosphate Li Na Fe (P O4) F
;
loop_
_citation_id
_citation_journal_full
_citation_year
_citation_journal_volume
_citation_page_first
_citation_page_last
_citation_journal_id_ASTM
primary 'Dalton Transactions' 2012 41 11692 11699 DTARAF
loop_
_citation_author_citation_id
_citation_author_name
primary 'Ben Yahia, Hamdi'
primary 'Shikano, Masahiro'
primary 'Sakaebe, Hikari'
primary 'Koike, Shinji'
primary 'Tabuchi, Mitsuharu'
primary 'Kobayashi, Hironori'
primary 'Kawaji, Hitoshi'
primary 'Avdeev, Maxim'
primary 'Miiller, Wojciech'
primary 'Ling, Christopher D.'
_cell_length_a 10.9851(4)
_cell_length_b 6.3686(3)
_cell_length_c 11.4343(4)
_cell_angle_alpha 90.
_cell_angle_beta 90.
_cell_angle_gamma 90.
_cell_volume 799.94
_cell_formula_units_Z 8
_space_group_name_H-M_alt 'P n m a'
_space_group_IT_number 62
loop_
_space_group_symop_id
_space_group_symop_operation_xyz
1 'x+1/2, y, -z+1/2'
2 'x, -y+1/2, z'
3 '-x+1/2, y+1/2, z+1/2'
4 '-x, -y, -z'
5 '-x+1/2, -y, z+1/2'
6 '-x, y+1/2, -z'
7 'x+1/2, -y+1/2, -z+1/2'
8 'x, y, z'
loop_
_atom_type_symbol
_atom_type_oxidation_number
Na1+ 1
Li1+ 1
Fe2+ 2
P5+ 5
O2- -2
F1- -1
loop_
_atom_site_label
_atom_site_type_symbol
_atom_site_symmetry_multiplicity
_atom_site_Wyckoff_symbol
_atom_site_fract_x
_atom_site_fract_y
_atom_site_fract_z
_atom_site_U_iso_or_equiv
_atom_site_occupancy
Na1 Na1+ 8 d 0.2273(11) 0.018(2) 0.3463(8) 0.021(4) 1.
Li1 Li1+ 4 c 0.286(3) 0.25 0.551(2) 0.021(4) 1.
Li2 Li1+ 4 c 0.444(3) 0.25 0.212(3) 0.021(4) 1.
Fe1 Fe2+ 4 a 0. 0. 0. 0.0130(16) 1.
Fe2 Fe2+ 4 b 0. 0. 0.5 0.0023(18) 1.
P1 P5+ 4 c 0.0328(11) 0.25 0.7384(13) 0.030(4) 1.
P2 P5+ 4 c 0.2501(16) 0.25 0.0704(11) 0.034(4) 1.
O1 O2- 8 d 0.1798(6) 0.0527(10) 0.0375(5) 0.014(2) 1.
O2 O2- 4 c 0.2662(12) 0.25 0.2099(8) 0.039(4) 1.
O3 O2- 4 c 0.1756(11) 0.25 0.7397(14) 0.056(5) 1.
O4 O2- 4 c 0.3743(8) 0.25 0.0171(9) 0.006(3) 1.
O5 O2- 4 c 0.4942(11) 0.25 0.6317(9) 0.021(3) 1.
O6 O2- 8 d 0.0034(7) 0.5482(9) 0.3180(4) 0.0023(19) 1.
F1 F1- 4 c 0.1316(9) 0.25 0.4668(10) 0.026(4) 1.
F2 F1- 4 c 0.4345(9) 0.25 0.3987(9) 0.006(3) 1.
#End of TTdata_186935-ICSD
#
