(C) 2022 by FIZ Karlsruhe - Leibniz Institute for Information Infrastructure.  All rights reserved.
data_14993-ICSD
_database_code_ICSD 14993
_audit_creation_date 2021-02-01
_chemical_name_common 'Lithium vanadium(IV) oxyfluorophosphate'
_chemical_formula_structural 'Li V (P O4) O0.798 F0.202'
_chemical_formula_sum 'F0.202 Li1 O4.798 P1 V1'
_chemical_name_structure_type LiTiOPO4
_exptl_crystal_density_diffrn 3.27
_citation_title
'Effects of a mixed O/F ligand in the Tavorite-type LiVPO$_4$O structure'
loop_
_citation_id
_citation_journal_full
_citation_year
_citation_journal_volume
_citation_page_first
_citation_page_last
_citation_journal_id_ASTM
primary 'Chemistry of Materials' 2020 32 262 272 CMATEX
loop_
_citation_author_citation_id
_citation_author_name
primary 'Semsari Parapari, Sorour'
primary 'Ateba Mba, Jean-Marcel'
primary 'Tchernychova, Elena'
primary 'Mali, Gregor'
primary 'Arčon, Iztok'
primary 'Kapun, Gregor'
primary 'Gülgün, Mehmet Ali'
primary 'Dominko, Robert'
_cell_length_a 6.810(9)
_cell_length_b 7.182(6)
_cell_length_c 7.928(6)
_cell_angle_alpha 89.943(7)
_cell_angle_beta 91.475(9)
_cell_angle_gamma 117.249(6)
_cell_volume 344.58
_cell_formula_units_Z 4
_space_group_name_H-M_alt 'P -1'
_space_group_IT_number 2
loop_
_space_group_symop_id
_space_group_symop_operation_xyz
1 '-x, -y, -z'
2 'x, y, z'
loop_
_atom_type_symbol
_atom_type_oxidation_number
V4+ 4
P5+ 5
O2- -2
F1- -1
O2- -2
F1- -1
O2- -2
Li1+ 1
loop_
_atom_site_label
_atom_site_type_symbol
_atom_site_symmetry_multiplicity
_atom_site_Wyckoff_symbol
_atom_site_fract_x
_atom_site_fract_y
_atom_site_fract_z
_atom_site_B_iso_or_equiv
_atom_site_occupancy
V1 V4+ 2 i 0.2581(9) -0.0027(8) 0.7403(2) . 1.
V2 V4+ 2 i 0.2617(2) -0.5283(4) 0.7457(8) . 1.
P1 P5+ 2 i 0.2205(5) -0.2558(9) 0.0766(4) . 1.
P2 P5+ 2 i 0.2989(3) -0.7197(8) 0.3982(3) . 1.
O1 O2- 2 i 0.5890(1) 0.1209(3) 0.7974(9) . 1.
O2 O2- 2 i 0.1254(2) -0.1138(7) 0.9936(1) . 1.
O3 O2- 2 i -0.0776(4) -0.1272(9) 0.6812(5) . 1.
O4 O2- 2 i 0.3757(2) 0.138(1) 0.5082(4) . 1.
O5 O2- 2 i 0.2533(2) -0.2775(8) 0.6458(1) . 0.750(3)
F1 F1- 2 i 0.2533(2) -0.2775(8) 0.6458(1) . 0.250(3)
O6 O2- 2 i 0.2852(2) 0.2302(8) 0.8096(7) . 0.846(1)
F2 F1- 2 i 0.2852(2) 0.2302(8) 0.8096(7) . 0.153(8)
O7 O2- 2 i 0.0809(0) -0.3847(9) 0.2307(2) . 1.
O8 O2- 2 i 0.3089(1) -0.3815(1) -0.0149(4) . 1.
O9 O2- 2 i 0.3940(8) -0.6582(8) 0.2174(2) . 1.
O10 O2- 2 i 0.1809(5) -0.6250(6) 0.5133(3) . 1.
Li1 Li1+ 2 i 0.204(0) -0.688(0) 0.075(0) . 1.
Li2 Li1+ 2 i 0.273(0) -0.207(0) 0.409(0) . 1.
#End of TTdata_14993-ICSD
#
