(C) 2022 by FIZ Karlsruhe - Leibniz Institute for Information Infrastructure.  All rights reserved.
data_144212-ICSD
_database_code_ICSD 144212
_audit_creation_date 2022-08-01
_chemical_name_common 'Bis(diammine ammonium) hexafluorido silicate(IV)'
_chemical_formula_structural '(N H4 (N H3)2)2 (Si F6)'
_chemical_formula_sum 'H20 F6 N6 Si1'
_exptl_crystal_density_diffrn 1.45
_diffrn_ambient_temperature 100.
_citation_title

;
Reactions of [SiF\(_4\)(NH\(_3\))\(_2\)] with fluorides AF (A = Li-Cs, Tl,
NH\(_4\)) in liquid NH\(_3\). A [NH\(_4\)(NH\(_3\))\(_2\)]\(^+\) cation and a
thallophilic interaction in [Tl\(_2\)(NH\(_3\))\(_6\)]\(^{2+}\)
;
loop_
_citation_id
_citation_journal_full
_citation_year
_citation_journal_volume
_citation_page_first
_citation_page_last
_citation_journal_id_ASTM
primary 'Inorganic Chemistry' 2021 60 15031 15040 INOCAJ
loop_
_citation_author_citation_id
_citation_author_name
primary 'Rudel, Stefan S.'
primary 'Graubner, Tim'
primary 'Karttunen, Antti J.'
primary 'Dehnen, Stefanie'
primary 'Kraus, Florian'
_cell_length_a 9.5119(19)
_cell_length_b 9.4246(19)
_cell_length_c 12.788(3)
_cell_angle_alpha 90
_cell_angle_beta 101.08(3)
_cell_angle_gamma 90
_cell_volume 1125.02
_cell_formula_units_Z 4
_space_group_name_H-M_alt 'C 1 2/c 1'
_space_group_IT_number 15
loop_
_space_group_symop_id
_space_group_symop_operation_xyz
1 'x, -y, z+1/2'
2 '-x, -y, -z'
3 '-x, y, -z+1/2'
4 'x, y, z'
5 'x+1/2, -y+1/2, z+1/2'
6 '-x+1/2, -y+1/2, -z'
7 '-x+1/2, y+1/2, -z+1/2'
8 'x+1/2, y+1/2, z'
loop_
_atom_type_symbol
_atom_type_oxidation_number
Si4+ 4
F1- -1
N3- -3
H1+ 1
N3- -3
H1+ 1
N3- -3
H1+ 1
loop_
_atom_site_label
_atom_site_type_symbol
_atom_site_symmetry_multiplicity
_atom_site_Wyckoff_symbol
_atom_site_fract_x
_atom_site_fract_y
_atom_site_fract_z
_atom_site_U_iso_or_equiv
_atom_site_occupancy
Si1 Si4+ 4 e 0.5 0.71806(2) 0.75 0.01629(8) 1
F1 F1- 8 f 0.32608(17) 0.74499(16) 0.71189(13) 0.0315(3) 0.5
F2 F1- 8 f 0.32267(17) 0.68733(13) 0.70939(13) 0.0274(3) 0.5
F3 F1- 8 f 0.52714(15) 0.54125(8) 0.74458(19) 0.0327(3) 0.5
F4 F1- 8 f 0.46670(12) 0.89257(8) 0.75185(14) 0.0337(3) 0.5
F5 F1- 8 f 0.48055(6) 0.71956(6) 0.87837(4) 0.03363(13) 1
N1 N3- 8 f 0.30710(8) 0.53937(7) 0.44916(6) 0.02877(14) 1
H1 H1+ 8 f 0.3596(16) 0.4969(14) 0.4103(11) 0.049(3) 1
H2 H1+ 8 f 0.3640(16) 0.6036(14) 0.4861(10) 0.050(3) 1
H3 H1+ 8 f 0.2427(16) 0.5858(14) 0.4087(10) 0.048(3) 1
N2 N3- 8 f 0.51411(8) 0.14935(8) 0.60909(6) 0.03009(15) 1
H4 H1+ 8 f 0.5153(14) 0.1412(13) 0.5406(10) 0.042(3) 1
H5 H1+ 8 f 0.4942(15) 0.0689(13) 0.6355(10) 0.043(3) 1
H6 H1+ 8 f 0.6017(15) 0.1688(14) 0.6393(9) 0.039(3) 1
N3 N3- 8 f 0.30215(8) 0.35892(8) 0.62481(6) 0.03062(15) 1
H7 H1+ 8 f 0.3655(15) 0.2915(12) 0.6226(10) 0.036(3) 1
H8 H1+ 8 f 0.2895(14) 0.4109(14) 0.5637(10) 0.045(3) 1
H9 H1+ 8 f 0.2215(15) 0.3165(14) 0.6361(10) 0.044(3) 1
H10 H1+ 8 f 0.3374(15) 0.4132(14) 0.6767(10) 0.044(3) 1
loop_
_atom_site_aniso_label
_atom_site_aniso_type_symbol
_atom_site_aniso_U_11
_atom_site_aniso_U_22
_atom_site_aniso_U_33
_atom_site_aniso_U_12
_atom_site_aniso_U_13
_atom_site_aniso_U_23
Si1 Si4+ 0.01629(13) 0.01638(11) 0.01590(12) 0. 0.00234(8) 0.
F1 F1- 0.0180(5) 0.0498(8) 0.0255(5) 0.0051(7) 0.0008(4) 0.0046(7)
F2 F1- 0.0155(4) 0.0365(7) 0.0288(5) -0.0024(6) 0.0010(3) -0.0034(6)
F3 F1- 0.0394(11) 0.0186(3) 0.0378(6) 0.0065(4) 0.0019(8) 0.0009(4)
F4 F1- 0.0471(10) 0.0169(3) 0.0370(4) 0.0018(3) 0.0077(8) -0.0027(4)
F5 F1- 0.0291(3) 0.0546(3) 0.0175(2) 0.0040(2) 0.00521(17) 0.00340(18)
N1 N3- 0.0288(3) 0.0281(3) 0.0293(3) -0.0006(3) 0.0053(3) 0.0016(2)
N2 N3- 0.0278(4) 0.0301(3) 0.0315(3) -0.0035(2) 0.0034(3) 0.0033(2)
N3 N3- 0.0281(3) 0.0342(3) 0.0300(3) -0.0026(3) 0.0068(3) 0.0048(3)
#End of TTdata_144212-ICSD
#
