(C) 2022 by FIZ Karlsruhe - Leibniz Institute for Information Infrastructure.  All rights reserved.
data_411748-ICSD
_database_code_ICSD 411748
_audit_creation_date 2005-04-01
_audit_update_record 2008-08-01
_chemical_name_common 'Tridysprosium tetrakis(selenate(IV)) fluoride'
_chemical_formula_structural 'Dy3 (Se O3)4 F'
_chemical_formula_sum 'Dy3 F1 O12 Se4'
_chemical_name_structure_type Gd3(SeO3)4F
_exptl_crystal_density_diffrn 5.28
_citation_title
'Synthesis and crystal structures of Er2 (Se O3)3 and Dy3 (Se O3)4 F'
loop_
_citation_id
_citation_journal_full
_citation_year
_citation_journal_volume
_citation_page_first
_citation_page_last
_citation_journal_id_ASTM
primary 'Journal of Solid State Chemistry' 2002 167 113 118 JSSCBI
loop_
_citation_author_citation_id
_citation_author_name
primary 'Kruegermann, I.'
primary 'Wickleder, M.S.'
_cell_length_a 10.3596(13)
_cell_length_b 10.3596(13)
_cell_length_c 6.8647(7)
_cell_angle_alpha 90.
_cell_angle_beta 90.
_cell_angle_gamma 120.
_cell_volume 638.03
_cell_formula_units_Z 2
_space_group_name_H-M_alt 'P 63 m c'
_space_group_IT_number 186
loop_
_space_group_symop_id
_space_group_symop_operation_xyz
1 '-x, -x+y, z+1/2'
2 'x-y, -y, z+1/2'
3 'y, x, z+1/2'
4 'x-y, x, z+1/2'
5 'y, -x+y, z+1/2'
6 '-x, -y, z+1/2'
7 'x, x-y, z'
8 '-x+y, y, z'
9 '-y, -x, z'
10 '-x+y, -x, z'
11 '-y, x-y, z'
12 'x, y, z'
loop_
_atom_type_symbol
_atom_type_oxidation_number
Dy3+ 3
Se4+ 4
O2- -2
F1- -1
loop_
_atom_site_label
_atom_site_type_symbol
_atom_site_symmetry_multiplicity
_atom_site_Wyckoff_symbol
_atom_site_fract_x
_atom_site_fract_y
_atom_site_fract_z
_atom_site_U_iso_or_equiv
_atom_site_occupancy
Dy1 Dy3+ 6 c 0.07482(6) 0.53741(3) 0.31813(13) 0.0151(2) 1
Se1 Se4+ 2 b 0.3333 0.6667 0.7531(4) 0.0112(5) 1
Se2 Se4+ 6 c 0.15449(8) 0.30888(16) 0.0842(2) 0.0190(3) 1
O1 O2- 6 c 0.1814(6) 0.3628(12) 0.3217(21) 0.028(2) 1
O2 O2- 6 c 0.4191(6) 0.5809(6) 0.6422(17) 0.023(2) 1
O3 O2- 12 d 0.3347(8) 0.4168(8) 0.0132(13) 0.0207(15) 1
F1 F1- 2 b 0.3333 0.6667 0.2713(21) 0.018(4) 1
loop_
_atom_site_aniso_label
_atom_site_aniso_type_symbol
_atom_site_aniso_U_11
_atom_site_aniso_U_22
_atom_site_aniso_U_33
_atom_site_aniso_U_12
_atom_site_aniso_U_13
_atom_site_aniso_U_23
Dy1 Dy3+ 0.0136(3) 0.0201(3) 0.0094(4) 0.0068(2) 0.0004(3) 0.00019(13)
Se1 Se4+ 0.0130(6) 0.0130(6) 0.0077(11) 0.0065(3) 0. 0.
Se2 Se4+ 0.0210(5) 0.0170(6) 0.0178(8) 0.0085(3) -0.0004(3) -0.0009(5)
O1 O2- 0.036(4) 0.035(5) 0.011(6) 0.018(3) 0.005(3) 0.010(6)
O2 O2- 0.034(4) 0.034(4) 0.006(5) 0.021(5) -0.002(2) 0.002(2)
O3 O2- 0.022(3) 0.028(4) 0.015(4) 0.016(3) 0.003(3) -0.002(3)
F1 F1- 0.021(4) 0.021(4) 0.013(11) 0.011(2) 0. 0.
#End of TTdata_411748-ICSD
#
