(C) 2022 by FIZ Karlsruhe - Leibniz Institute for Information Infrastructure.  All rights reserved.
data_45755-ICSD
_database_code_ICSD 45755
_audit_creation_date 2022-08-01
_chemical_name_common 'Praseodymium scandium orthoborate'
_chemical_formula_structural '(Pr0.9 Sc0.1) (B O3)'
_chemical_formula_sum 'B1 O3 Pr0.9 Sc0.1'
_chemical_name_structure_type DyBO3
_exptl_crystal_density_diffrn 5.1
_citation_title

;
Study of RBO$_3$-ScBO$_3$ phase diagrams and RSc$_3$(BO$_3$)$_4$ orthoborates
(R = La, Pr and Nd)
;
loop_
_citation_id
_citation_journal_full
_citation_year
_citation_journal_volume
_citation_page_first
_citation_page_last
_citation_journal_id_ASTM
primary 'Journal of Alloys and Compounds' 2022 905 '' '' JALCEU
loop_
_citation_author_citation_id
_citation_author_name
primary 'Jamous, A.Y.'
primary 'Kuznetsov, A.B.'
primary 'Kokh, K.A.'
primary 'Svetlichnyi, V.A.'
primary 'Kononova, N.G.'
primary 'Shevchenko, V.S.'
primary 'Ryadun, A.A.'
primary 'Kokh, A.E.'
_cell_length_a 6.3586(2)
_cell_length_b 6.5688(11)
_cell_length_c 6.5761(12)
_cell_angle_alpha 94.295(4)
_cell_angle_beta 107.227(3)
_cell_angle_gamma 106.448(3)
_cell_volume 247.81
_cell_formula_units_Z 4
_space_group_name_H-M_alt 'P -1'
_space_group_IT_number 2
loop_
_space_group_symop_id
_space_group_symop_operation_xyz
1 '-x, -y, -z'
2 'x, y, z'
loop_
_atom_type_symbol
_atom_type_oxidation_number
Sc3+ 3
Pr3+ 3
Sc3+ 3
Pr3+ 3
B3+ 3
O2- -2
loop_
_atom_site_label
_atom_site_type_symbol
_atom_site_symmetry_multiplicity
_atom_site_Wyckoff_symbol
_atom_site_fract_x
_atom_site_fract_y
_atom_site_fract_z
_atom_site_U_iso_or_equiv
_atom_site_occupancy
Sc1 Sc3+ 2 i 0.0483(1) 0.3375(3) 0.2630(3) 0.0042(5) 0.1
Pr1 Pr3+ 2 i 0.0483(1) 0.3375(3) 0.2630(3) 0.0042(5) 0.9
Sc2 Sc3+ 2 i 0.4403(5) 0.2207(6) 0.8026(5) 0.0159(4) 0.1
Pr2 Pr3+ 2 i 0.4403(5) 0.2207(6) 0.8026(5) 0.0159(4) 0.9
B1 B3+ 2 i 0.9918(5) 0.2260(5) 0.7835(6) 0.0150(2) 1
B2 B3+ 2 i 0.5361(8) 0.2341(7) 0.2465(5) 0.0150(2) 1
O1 O2- 2 i 0.6475(9) 0.2106(9) 0.2108(6) 0.0184(6) 1
O2 O2- 2 i 0.9851(3) 0.9886(6) 0.2091(8) 0.0184(6) 1
O3 O2- 2 i 0.4215(4) 0.3984(2) 0.1705(6) 0.0184(6) 1
O4 O2- 2 i 0.0599(1) 0.3557(6) 0.6395(7) 0.0184(6) 1
O5 O2- 2 i 0.4542(9) 0.2355(1) 0.4512(4) 0.0184(6) 1
O6 O2- 2 i 0.8019(2) 0.2320(5) 0.8239(9) 0.0184(6) 1
#End of TTdata_45755-ICSD
#
