(C) 2022 by FIZ Karlsruhe - Leibniz Institute for Information Infrastructure.  All rights reserved.
data_167238-ICSD
_database_code_ICSD 167238
_audit_creation_date 2010-08-01
_audit_update_record 2016-02-01
_chemical_name_common 'Trilithium divanadium(III) tris(phosphate(V))'
_chemical_formula_structural 'Li3 V2 (P O4)3'
_chemical_formula_sum 'Li3 O12 P3 V2'
_chemical_name_structure_type Li3Fe2(PO4)3(P21/n)
_exptl_crystal_density_diffrn 3.05
_citation_title

;
Synthesis of high tap density Li3 V2 (P O4)3 cathode materials using mixed
lithium precursors
;
loop_
_citation_id
_citation_journal_full
_citation_year
_citation_journal_volume
_citation_page_first
_citation_page_last
_citation_journal_id_ASTM
primary 'Journal of Physics and Chemistry of Solids' 2010 71 394 399 JPCSAW
loop_
_citation_author_citation_id
_citation_author_name
primary 'Fu Peng'
primary 'Zhao Yanming'
primary 'Dong Youzhong'
primary 'Hou Xingmei'
_cell_length_a 8.5978(1)
_cell_length_b 8.5933(3)
_cell_length_c 12.0327(5)
_cell_angle_alpha 90.
_cell_angle_beta 90.496(8)
_cell_angle_gamma 90.
_cell_volume 888.98
_cell_formula_units_Z 4
_space_group_name_H-M_alt 'P 1 21/n 1'
_space_group_IT_number 14
loop_
_space_group_symop_id
_space_group_symop_operation_xyz
1 '-x+1/2, y+1/2, -z+1/2'
2 '-x, -y, -z'
3 'x+1/2, -y+1/2, z+1/2'
4 'x, y, z'
loop_
_atom_type_symbol
_atom_type_oxidation_number
Li1+ 1
V3+ 3
P5+ 5
O2- -2
loop_
_atom_site_label
_atom_site_type_symbol
_atom_site_symmetry_multiplicity
_atom_site_Wyckoff_symbol
_atom_site_fract_x
_atom_site_fract_y
_atom_site_fract_z
_atom_site_B_iso_or_equiv
_atom_site_occupancy
Li1 Li1+ 4 e 0.2281(8) 0.7694(6) 0.1874(9) . 1.
Li2 Li1+ 4 e 0.9068(3) 0.3039(5) 0.1858(8) . 1.
Li3 Li1+ 4 e 0.5899(4) 0.3718(2) 0.2298(9) . 1.
V1 V3+ 4 e 0.2468(6) 0.4616(5) 0.1066(6) . 1.
V2 V3+ 4 e 0.7511(4) 0.4723(9) 0.3865(7) . 1.
P1 P5+ 4 e 0.1067(6) 0.1061(4) 0.1465(5) . 1.
P2 P5+ 4 e 0.6058(3) 0.1128(5) 0.3591(7) . 1.
P3 P5+ 4 e 0.0431(2) 0.2454(8) 0.4988(7) . 1.
O1 O2- 4 e 0.9345(5) 0.1109(3) 0.1451(1) . 1.
O2 O2- 4 e 0.1532(2) 0.9824(7) 0.2352(5) . 1.
O3 O2- 4 e 0.1756(1) 0.0390(7) 0.0398(4) . 1.
O4 O2- 4 e 0.1546(5) 0.2694(5) 0.1754(7) . 1.
O5 O2- 4 e 0.4196(6) 0.0913(0) 0.3210(8) . 1.
O6 O2- 4 e 0.6887(1) 0.0045(6) 0.2813(8) . 1.
O7 O2- 4 e 0.6532(2) 0.0945(2) 0.4688(7) . 1.
O8 O2- 4 e 0.6574(9) 0.2698(5) 0.3147(3) . 1.
O9 O2- 4 e 0.9517(4) 0.1454(9) 0.5710(9) . 1.
O10 O2- 4 e 0.9149(1) 0.3222(1) 0.3968(2) . 1.
O11 O2- 4 e 0.1738(3) 0.1675(4) 0.4339(8) . 1.
O12 O2- 4 e 0.1067(4) 0.3596(2) 0.5719(3) . 1.
#End of TTdata_167238-ICSD
#
