(C) 2022 by FIZ Karlsruhe - Leibniz Institute for Information Infrastructure.  All rights reserved.
data_250860-ICSD
_database_code_ICSD 250860
_audit_creation_date 2015-02-01
_chemical_name_common
'Trilithium nonacalcium heptakis(borate) bis(lithium fluoride)'
_chemical_formula_structural 'Li3 Ca9 (B O3)7 (Li F)2'
_chemical_formula_sum 'B7 Ca9 F2 Li5 O21'
_exptl_crystal_density_diffrn 2.74
_diffrn_ambient_temperature 296.
_citation_title

;
New salt-inclusion borate, Li3Ca9(BO3)7 * 2[LiF]. A promising UV NLO material
with the coplanar and high density BO3 triangles
;
loop_
_citation_id
_citation_journal_full
_citation_year
_citation_journal_volume
_citation_page_first
_citation_page_last
_citation_journal_id_ASTM
primary 'Inorganic Chemistry' 2013 52 5359 5365 INOCAJ
loop_
_citation_author_citation_id
_citation_author_name
primary 'Yu, Hongwei'
primary 'Wu, Hongping'
primary 'Pan, Shilie'
primary 'Wang, Ying'
primary 'Yang, Zhihua'
primary 'Su, Xin'
_cell_length_a 3.5631(6)
_cell_length_b 12.872(3)
_cell_length_c 12.876(2)
_cell_angle_alpha 60.098(11)
_cell_angle_beta 88.407(12)
_cell_angle_gamma 88.420(13)
_cell_volume 511.67
_cell_formula_units_Z 1
_space_group_name_H-M_alt 'P 1'
_space_group_IT_number 1
loop_
_space_group_symop_id
_space_group_symop_operation_xyz
1 'x, y, z'
loop_
_atom_type_symbol
_atom_type_oxidation_number
Ca2+ 2
Li1+ 1
B3+ 3
O2- -2
F1- -1
loop_
_atom_site_label
_atom_site_type_symbol
_atom_site_symmetry_multiplicity
_atom_site_Wyckoff_symbol
_atom_site_fract_x
_atom_site_fract_y
_atom_site_fract_z
_atom_site_U_iso_or_equiv
_atom_site_occupancy
Ca1 Ca2+ 1 a 0.0550(3) 0.24032(9) 0.61311(9) 0.0125(2) 1
Ca2 Ca2+ 1 a 0.0838(3) 0.48632(9) 0.21891(9) 0.0123(2) 1
Ca3 Ca2+ 1 a -0.4269(3) 0.00539(9) 0.58941(9) 0.0121(2) 1
Ca4 Ca2+ 1 a 0.5585(3) 0.74646(10) -0.01714(9) 0.0123(2) 1
Ca5 Ca2+ 1 a 1.0406(3) 0.63592(9) 0.47042(9) 0.0125(2) 1
Ca6 Ca2+ 1 a 0.5455(3) 0.61123(10) 0.73053(10) 0.0130(2) 1
Ca7 Ca2+ 1 a -0.3699(2) 0.27345(9) 0.15785(9) 0.0112(2) 1
Ca8 Ca2+ 1 a 0.5351(3) 0.18007(9) 0.88770(9) 0.0135(2) 1
Ca9 Ca2+ 1 a 1.5132(3) 0.90752(9) 0.25553(9) 0.0124(2) 1
Li1 Li1+ 1 a 1.030(2) 0.9081(8) 0.0442(8) 0.0153(19) 1
Li2 Li1+ 1 a -0.900(3) 0.0622(9) 0.3670(8) 0.019(2) 1
Li3 Li1+ 1 a 1.046(2) 0.3863(8) 0.8929(8) 0.017(2) 1
Li4 Li1+ 1 a 0.568(5) 0.4715(18) 0.4164(19) 0.080(5) 1
Li5 Li1+ 1 a 1.056(4) 0.8078(17) -0.2459(17) 0.085(6) 1
B1 B3+ 1 a 0.0522(17) -0.0023(6) 0.8150(5) 0.0098(12) 1
B2 B3+ 1 a 0.0459(16) 0.8344(6) 0.5117(6) 0.0091(12) 1
B3 B3+ 1 a 0.0751(16) 0.5285(6) -0.0204(5) 0.0091(12) 1
B4 B3+ 1 a 0.5458(16) 0.7068(6) 0.2222(6) 0.0130(13) 1
B5 B3+ 1 a 0.0579(15) 0.1173(5) 0.1019(5) 0.0117(11) 1
B6 B3+ 1 a 0.5383(15) 0.4118(5) 0.6893(6) 0.0112(12) 1
B7 B3+ 1 a -0.4094(15) 0.2384(5) 0.3922(5) 0.0107(12) 1
O1 O2- 1 a -0.3848(10) 0.1410(3) 0.3764(3) 0.0148(7) 1
O2 O2- 1 a 0.5317(11) 0.3965(3) 0.8037(3) 0.0157(7) 1
O3 O2- 1 a 1.5333(10) 0.8201(3) 0.1236(3) 0.0138(7) 1
O4 O2- 1 a 0.5454(9) 0.6948(3) 0.3346(3) 0.0131(8) 1
O5 O2- 1 a 0.5410(9) 0.3135(3) 0.6758(3) 0.0137(8) 1
O6 O2- 1 a -0.4374(10) 0.2224(3) 0.5063(3) 0.0132(8) 1
O7 O2- 1 a 0.5695(10) 0.6085(3) 0.2072(3) 0.0116(8) 1
O8 O2- 1 a -0.4091(9) 0.3522(3) 0.2926(3) 0.0140(8) 1
O9 O2- 1 a 0.5455(10) 0.5266(3) 0.5926(3) 0.0129(8) 1
O10 O2- 1 a 0.1226(9) 0.4103(3) 0.0713(3) 0.0133(8) 1
O11 O2- 1 a 0.0479(9) 0.7172(3) 0.6023(3) 0.0140(8) 1
O12 O2- 1 a 0.0474(9) 0.0914(3) 0.8397(3) 0.0149(8) 1
O13 O2- 1 a 0.0606(9) 0.0246(3) 0.6975(3) 0.0139(8) 1
O14 O2- 1 a -0.9085(9) -0.0739(3) 0.5358(3) 0.0132(8) 1
O15 O2- 1 a 1.0096(9) 0.8595(3) 0.3941(3) 0.0148(8) 1
O16 O2- 1 a 1.0471(10) 0.8814(3) -0.0932(3) 0.0132(8) 1
O17 O2- 1 a 0.0715(9) 0.6187(3) 0.0068(3) 0.0139(8) 1
O18 O2- 1 a 2.0037(9) 1.0060(3) 0.1166(3) 0.0157(7) 1
O19 O2- 1 a 0.9874(10) 0.2168(3) 0.9956(3) 0.0176(8) 1
O20 O2- 1 a -0.8157(9) 0.1279(3) 0.1963(3) 0.0164(8) 1
O21 O2- 1 a 1.0373(10) 0.5522(3) 0.8634(3) 0.0150(8) 1
F1 F1- 1 a 0.0601(8) 0.4544(3) 0.4343(3) 0.0163(6) 1
F2 F1- 1 a 0.5597(8) 0.7887(3) -0.2319(3) 0.0162(7) 1
loop_
_atom_site_aniso_label
_atom_site_aniso_type_symbol
_atom_site_aniso_U_11
_atom_site_aniso_U_22
_atom_site_aniso_U_33
_atom_site_aniso_U_12
_atom_site_aniso_U_13
_atom_site_aniso_U_23
Ca1 Ca2+ 0.0132(5) 0.0137(6) 0.0133(6) -0.0008(4) -0.0005(4) -0.0087(5)
Ca2 Ca2+ 0.0117(5) 0.0104(5) 0.0127(6) -0.0006(4) -0.0003(4) -0.0042(5)
Ca3 Ca2+ 0.0117(5) 0.0133(5) 0.0130(6) -0.0013(4) -0.0004(4) -0.0079(5)
Ca4 Ca2+ 0.0123(5) 0.0115(5) 0.0137(5) -0.0013(4) -0.0005(4) -0.0065(5)
Ca5 Ca2+ 0.0121(5) 0.0148(6) 0.0095(5) -0.0009(4) -0.0006(4) -0.0051(5)
Ca6 Ca2+ 0.0129(5) 0.0144(6) 0.0104(5) -0.0013(4) -0.0010(4) -0.0052(5)
Ca7 Ca2+ 0.0126(5) 0.0095(5) 0.0113(5) -0.0008(4) -0.0002(4) -0.0049(4)
Ca8 Ca2+ 0.0173(5) 0.0128(5) 0.0121(5) -0.0009(4) -0.0007(4) -0.0076(4)
Ca9 Ca2+ 0.0157(5) 0.0114(5) 0.0088(5) -0.0012(4) -0.0007(4) -0.0039(4)
Li1 Li1+ 0.011(4) 0.020(5) 0.020(5) 0.004(4) 0.000(3) -0.013(4)
Li2 Li1+ 0.016(4) 0.020(5) 0.013(5) 0.002(4) -0.003(4) -0.001(4)
Li3 Li1+ 0.019(5) 0.019(5) 0.014(5) -0.001(4) 0.007(4) -0.011(4)
Li4 Li1+ 0.033(6) 0.089(9) 0.095(9) 0.013(6) -0.005(6) -0.029(7)
Li5 Li1+ 0.034(7) 0.088(9) 0.091(9) -0.001(7) 0.004(6) -0.013(7)
B1 B3+ 0.008(3) 0.016(3) 0.009(3) -0.003(2) -0.002(2) -0.009(3)
B2 B3+ 0.008(3) 0.012(3) 0.008(3) 0.002(2) 0.001(2) -0.006(2)
B3 B3+ 0.004(2) 0.010(3) 0.013(3) -0.002(2) -0.001(2) -0.005(2)
B4 B3+ 0.010(3) 0.016(3) 0.016(3) -0.001(2) 0.002(2) -0.010(3)
B5 B3+ 0.006(2) 0.017(3) 0.010(3) -0.001(2) 0.001(2) -0.005(2)
B6 B3+ 0.003(2) 0.013(3) 0.017(3) 0.001(2) -0.001(2) -0.007(3)
B7 B3+ 0.007(3) 0.009(3) 0.015(3) 0.003(2) 0.001(2) -0.005(3)
O1 O2- 0.0213(17) 0.0128(18) 0.0104(17) 0.0033(15) -0.0028(14) -0.0059(15)
O2 O2- 0.0250(18) 0.0105(17) 0.0124(18) 0.0027(14) -0.0010(14) -0.0065(15)
O3 O2- 0.0222(18) 0.0116(17) 0.0080(17) 0.0009(14) -0.0023(14) -0.0052(15)
O4 O2- 0.0156(18) 0.017(2) 0.0084(19) -0.0005(15) -0.0016(15) -0.0072(16)
O5 O2- 0.0142(19) 0.015(2) 0.014(2) -0.0017(15) 0.0017(15) -0.0092(17)
O6 O2- 0.0172(18) 0.0130(19) 0.010(2) 0.0000(15) -0.0011(15) -0.0058(17)
O7 O2- 0.0152(17) 0.0076(18) 0.0138(18) -0.0004(14) -0.0014(14) -0.0065(16)
O8 O2- 0.0135(18) 0.012(2) 0.014(2) 0.0011(16) -0.0002(15) -0.0044(17)
O9 O2- 0.0123(18) 0.011(2) 0.013(2) -0.0031(15) 0.0022(15) -0.0042(17)
O10 O2- 0.0102(17) 0.0101(18) 0.0161(19) -0.0033(14) 0.0007(14) -0.0037(16)
O11 O2- 0.0184(19) 0.0090(18) 0.0100(18) -0.0009(15) -0.0026(15) -0.0012(16)
O12 O2- 0.0149(18) 0.0150(19) 0.018(2) 0.0001(15) -0.0023(14) -0.0111(17)
O13 O2- 0.0148(18) 0.021(2) 0.0072(18) -0.0044(16) 0.0019(14) -0.0078(17)
O14 O2- 0.0158(18) 0.0124(19) 0.0146(19) 0.0012(15) -0.0020(15) -0.0092(16)
O15 O2- 0.0185(18) 0.0161(19) 0.0086(17) 0.0011(15) -0.0009(14) -0.0054(16)
O16 O2- 0.0137(17) 0.0112(19) 0.0096(18) 0.0012(15) -0.0023(15) -0.0014(17)
O17 O2- 0.0148(18) 0.0143(19) 0.0138(19) -0.0007(15) 0.0010(14) -0.0079(16)
O18 O2- 0.0238(18) 0.0128(18) 0.0127(17) -0.0010(15) 0.0014(14) -0.0081(15)
O19 O2- 0.0277(19) 0.0085(17) 0.0137(18) 0.0007(15) -0.0058(14) -0.0032(15)
O20 O2- 0.0230(18) 0.0179(18) 0.0071(16) -0.0092(15) 0.0004(14) -0.0050(15)
O21 O2- 0.0180(18) 0.017(2) 0.0119(19) -0.0010(15) -0.0029(15) -0.0082(16)
F1 F1- 0.0136(13) 0.0188(15) 0.0166(15) 0.0003(11) -0.0005(11) -0.0090(13)
F2 F1- 0.0144(15) 0.0193(17) 0.0163(16) -0.0017(13) 0.0007(12) -0.0099(14)
#End of TTdata_250860-ICSD
#
