(C) 2022 by FIZ Karlsruhe - Leibniz Institute for Information Infrastructure.  All rights reserved.
data_429542-ICSD
_database_code_ICSD 429542
_audit_creation_date 2016-02-01
_chemical_name_common 'Lithium neodymium octanitridotetraphosphate'
_chemical_formula_structural 'Li Nd P4 N8'
_chemical_formula_sum 'Li1 N8 Nd1 P4'
_exptl_crystal_density_diffrn 4.11
_diffrn_ambient_temperature 296.
_citation_title
'Rare-earth-metal nitridophosphates through high-pressure metathesis'
loop_
_citation_id
_citation_journal_full
_citation_year
_citation_journal_volume
_citation_page_first
_citation_page_last
_citation_journal_id_ASTM
primary 'Angewandte Chemie, International Edition' 2015 54 11250 11253 ACIEF5
loop_
_citation_author_citation_id
_citation_author_name
primary 'Kloss, Simon David'
primary 'Schnick, Wolfgang'
_cell_length_a 8.7305(17)
_cell_length_b 7.8783(16)
_cell_length_c 9.0881(18)
_cell_angle_alpha 90.
_cell_angle_beta 90.
_cell_angle_gamma 90.
_cell_volume 625.09
_cell_formula_units_Z 4
_space_group_name_H-M_alt 'P n m a'
_space_group_IT_number 62
loop_
_space_group_symop_id
_space_group_symop_operation_xyz
1 'x+1/2, y, -z+1/2'
2 'x, -y+1/2, z'
3 '-x+1/2, y+1/2, z+1/2'
4 '-x, -y, -z'
5 '-x+1/2, -y, z+1/2'
6 '-x, y+1/2, -z'
7 'x+1/2, -y+1/2, -z+1/2'
8 'x, y, z'
loop_
_atom_type_symbol
_atom_type_oxidation_number
P5+ 5
N3- -3
P5+ 5
N3- -3
Li1+ 1
N3- -3
Nd3+ 3
N3- -3
loop_
_atom_site_label
_atom_site_type_symbol
_atom_site_symmetry_multiplicity
_atom_site_Wyckoff_symbol
_atom_site_fract_x
_atom_site_fract_y
_atom_site_fract_z
_atom_site_U_iso_or_equiv
_atom_site_occupancy
P1 P5+ 8 d 0.06946(4) 0.56226(5) 0.19144(4) 0.00306(7) 1
N1 N3- 8 d 0.12919(15) 0.55857(17) 0.36049(14) 0.0052(2) 1
N2 N3- 8 d 0.19691(15) 0.02375(18) 0.07912(13) 0.0049(2) 1
P2 P5+ 8 d 0.27070(4) 0.05958(5) 0.41773(4) 0.00298(7) 1
N3 N3- 8 d 0.42249(14) 0.06649(17) 0.31469(15) 0.0048(2) 1
Li1 Li1+ 4 c 0.0550(6) 0.25 0.0667(5) 0.0134(8) 1
N4 N3- 4 c 0.1977(2) 0.25 0.4181(2) 0.0055(3) 1
Nd1 Nd3+ 4 c 0.41210(2) 0.25 0.08571(2) 0.00555(4) 1
N5 N3- 4 c 0.4798(2) 0.25 0.6392(2) 0.0056(3) 1
loop_
_atom_site_aniso_label
_atom_site_aniso_type_symbol
_atom_site_aniso_U_11
_atom_site_aniso_U_22
_atom_site_aniso_U_33
_atom_site_aniso_U_12
_atom_site_aniso_U_13
_atom_site_aniso_U_23
P1 P5+ 0.00351(14) 0.00320(15) 0.00246(15) 0.00014(11) -0.00015(11) 0.00010(12)
N1 N3- 0.0064(5) 0.0060(5) 0.0033(5) 0.0026(4) -0.0009(4) -0.0007(4)
N2 N3- 0.0058(5) 0.0053(5) 0.0036(5) -0.0016(4) 0.0009(4) -0.0008(4)
P2 P5+ 0.00299(15) 0.00302(16) 0.00294(15) -0.00019(11) -0.00013(11) 0.00016(11)
N3 N3- 0.0042(5) 0.0050(5) 0.0053(5) 0.0009(4) 0.0009(4) 0.0014(4)
Li1 Li1+ 0.014(2) 0.013(2) 0.0127(19) 0. 0.0007(16) 0.
N4 N3- 0.0060(7) 0.0019(7) 0.0086(8) 0. 0.0007(6) 0.
Nd1 Nd3+ 0.00667(6) 0.00548(6) 0.00449(6) 0. -0.00034(3) 0.
N5 N3- 0.0085(7) 0.0038(7) 0.0045(7) 0. 0.0015(6) 0.
#End of TTdata_429542-ICSD
#
