(C) 2022 by FIZ Karlsruhe - Leibniz Institute for Information Infrastructure.  All rights reserved.
data_46287-ICSD
_database_code_ICSD 46287
_audit_creation_date 2022-08-01
_chemical_name_common 'Dilithium tungstate'
_chemical_formula_structural 'Li2 W O4'
_chemical_formula_sum 'Li2 O4 W1'
_exptl_crystal_density_diffrn 5.7
_diffrn_ambient_temperature 299.
_citation_title

;
New insights into alkali metal tungstates. The high temperature polymorphism
of Na\(_2\)WO\(_4\), the new polymorph Li\(_2\)WO\(_4\)-V and the redetermined
crystal structure of Li\(_2\)W\(_2\)O\(_7\)
;
loop_
_citation_id
_citation_journal_full
_citation_year
_citation_journal_volume
_citation_page_first
_citation_page_last
_citation_journal_id_ASTM
primary 'Zeitschrift fuer Anorganische und Allgemeine Chemie' 2022 648 1 7
ZAACAB
loop_
_citation_author_citation_id
_citation_author_name
primary 'Hämmer, Matthias'
primary 'Höppe, Henning A.'
_cell_length_a 5.2745(2)
_cell_length_b 7.7769(3)
_cell_length_c 7.9731(3)
_cell_angle_alpha 105.8351(17)
_cell_angle_beta 103.3911(17)
_cell_angle_gamma 90.5810(19)
_cell_volume 305.14
_cell_formula_units_Z 4
_space_group_name_H-M_alt 'P -1'
_space_group_IT_number 2
loop_
_space_group_symop_id
_space_group_symop_operation_xyz
1 '-x, -y, -z'
2 'x, y, z'
loop_
_atom_type_symbol
_atom_type_oxidation_number
W6+ 6
O2- -2
Li1+ 1
loop_
_atom_site_label
_atom_site_type_symbol
_atom_site_symmetry_multiplicity
_atom_site_Wyckoff_symbol
_atom_site_fract_x
_atom_site_fract_y
_atom_site_fract_z
_atom_site_U_iso_or_equiv
_atom_site_occupancy
W1 W6+ 2 i 0.49868(11) 0.42089(8) 0.68494(8) 0.0062(2) 1
W2 W6+ 2 i 0.70858(11) 0.82944(8) 0.73492(8) 0.0064(2) 1
O1 O2- 2 i 0.919(2) 0.8013(13) 0.9313(13) 0.009(2) 1
O2 O2- 2 i 0.737(2) 0.4184(14) 0.8803(14) 0.012(2) 1
O3 O2- 2 i 0.211(2) 0.3232(13) 0.7123(13) 0.010(2) 1
O4 O2- 2 i 0.937(2) 0.9103(14) 0.6318(15) 0.013(2) 1
O5 O2- 2 i 0.536(2) 1.0192(14) 0.8150(14) 0.012(2) 1
O6 O2- 2 i 0.579(2) 0.2178(14) 0.5197(14) 0.0070(12) 1
O7 O2- 2 i 0.4086(19) 0.6644(13) 0.7613(13) 0.0070(12) 1
O8 O2- 2 i 0.7432(19) 0.5656(13) 0.5831(13) 0.0070(12) 1
Li1 Li1+ 2 i 0.899(7) 0.645(5) 1.073(4) 0.033(5) 1
Li2 Li1+ 2 i 1.296(7) 0.787(5) 0.976(4) 0.033(5) 1
Li3 Li1+ 2 i 0.758(6) 0.953(4) 0.403(4) 0.023(7) 1
Li4 Li1+ 2 i 0.900(6) 0.327(4) 0.470(4) 0.020(6) 1
loop_
_atom_site_aniso_label
_atom_site_aniso_type_symbol
_atom_site_aniso_U_11
_atom_site_aniso_U_22
_atom_site_aniso_U_33
_atom_site_aniso_U_12
_atom_site_aniso_U_13
_atom_site_aniso_U_23
W1 W6+ 0.0088(4) 0.0055(3) 0.0045(3) -0.0002(2) 0.0016(2) 0.0017(2)
W2 W6+ 0.0077(3) 0.0052(3) 0.0055(3) -0.0005(2) 0.0015(2) 0.0005(2)
O1 O2- 0.013(6) 0.006(5) 0.005(5) -0.005(4) 0.005(4) -0.002(4)
O2 O2- 0.010(6) 0.011(6) 0.009(6) 0.003(4) -0.001(4) -0.002(4)
O3 O2- 0.009(6) 0.011(6) 0.008(5) -0.005(4) 0.000(4) 0.001(4)
O4 O2- 0.012(6) 0.004(5) 0.020(6) -0.001(4) 0.004(5) -0.002(5)
O5 O2- 0.015(6) 0.010(6) 0.007(5) -0.003(5) -0.003(4) -0.001(4)
O6 O2- 0.008(3) 0.007(3) 0.004(3) -0.002(2) 0.000(2) 0.000(2)
O7 O2- 0.008(3) 0.007(3) 0.004(3) -0.002(2) 0.000(2) 0.000(2)
O8 O2- 0.008(3) 0.007(3) 0.004(3) -0.002(2) 0.000(2) 0.000(2)
Li1 Li1+ 0.041(13) 0.040(13) 0.016(10) 0.009(11) 0.010(10) 0.002(10)
Li2 Li1+ 0.041(13) 0.040(13) 0.016(10) 0.009(11) 0.010(10) 0.002(10)
#End of TTdata_46287-ICSD
#
