(C) 2022 by FIZ Karlsruhe - Leibniz Institute for Information Infrastructure.  All rights reserved.
data_264353-ICSD
_database_code_ICSD 264353
_audit_creation_date 2019-02-01
_chemical_name_common
'Tripotassium tribarium dilithium tetragallium hexaborate fluoride'
_chemical_formula_structural 'K3 Ba3 Li2 Ga4 B6 O20 F'
_chemical_formula_sum 'B6 Ba3 F1 Ga4 K3 Li2 O20'
_exptl_crystal_density_diffrn 3.74
_diffrn_ambient_temperature 293.
_citation_title

;
Beryllium-free nonlinear-optical crystals A3Ba3Li2Ga4B6O20F (A = K and Rb).
Members of the Sr2Be2(BO3)2O family with a strong covalent connection between
the inf2[Li2Ga4B6O20F]9- double layers
;
loop_
_citation_id
_citation_journal_full
_citation_year
_citation_journal_volume
_citation_page_first
_citation_page_last
_citation_journal_id_ASTM
primary 'Inorganic Chemistry' 2018 57 5669 5676 INOCAJ
loop_
_citation_author_citation_id
_citation_author_name
primary 'Meng, Xianghe'
primary 'Liang, Fei'
primary 'Xia, Mingjun'
primary 'Lin, Zheshuai'
_cell_length_a 8.6398(12)
_cell_length_b 8.6398(12)
_cell_length_c 16.827(3)
_cell_angle_alpha 90.
_cell_angle_beta 90.
_cell_angle_gamma 120.
_cell_volume 1087.78
_cell_formula_units_Z 2
_space_group_name_H-M_alt 'P -6 2 c'
_space_group_IT_number 190
loop_
_space_group_symop_id
_space_group_symop_operation_xyz
1 '-x, -x+y, -z'
2 'x-y, -y, -z'
3 'y, x, -z'
4 '-x, -x+y, z+1/2'
5 'x-y, -y, z+1/2'
6 'y, x, z+1/2'
7 '-x+y, -x, -z+1/2'
8 '-y, x-y, -z+1/2'
9 'x, y, -z+1/2'
10 '-x+y, -x, z'
11 '-y, x-y, z'
12 'x, y, z'
loop_
_atom_type_symbol
_atom_type_oxidation_number
K1+ 1
Ba2+ 2
K1+ 1
Ga3+ 3
B3+ 3
Li1+ 1
F1- -1
O2- -2
loop_
_atom_site_label
_atom_site_type_symbol
_atom_site_symmetry_multiplicity
_atom_site_Wyckoff_symbol
_atom_site_fract_x
_atom_site_fract_y
_atom_site_fract_z
_atom_site_U_iso_or_equiv
_atom_site_occupancy
K1 K1+ 6 h 0.7057(3) 0.0498(3) 0.25 0.0200(8) 0.851(5)
Ba1 Ba2+ 6 h 0.7057(3) 0.0498(3) 0.25 0.0200(8) 0.149(5)
Ba2 Ba2+ 6 g 0.63436(10) 0. 0. 0.0188(3) 0.851(5)
K2 K1+ 6 g 0.63436(10) 0. 0. 0.0188(3) 0.149(5)
Ga1 Ga3+ 4 f 0.3333 -0.3333 0.15436(12) 0.0196(5) 1
Ga2 Ga3+ 4 e 0. 0. 0.10581(13) 0.0105(5) 1
B1 B3+ 12 i 0.0074(16) 0.3306(18) 0.1182(11) 0.026(3) 1
Li1 Li1+ 4 f 0.6667 0.3333 0.1395(16) 0.007(5) 1
F1 F1- 2 d 0.6667 0.3333 0.25 0.023(3) 1
O1 O2- 12 i 0.0849(9) 0.2295(10) 0.1397(4) 0.0243(15) 1
O2 O2- 12 i 0.8376(10) 0.2669(10) 0.0978(5) 0.0304(17) 1
O3 O2- 12 i 0.1116(16) 0.5144(15) 0.1289(6) 0.052(2) 1
O4 O2- 2 a 0. 0. 0. 0.077(12) 1
O5 O2- 6 h 0.377(4) -0.217(4) 0.25 0.026(7) 0.33
loop_
_atom_site_aniso_label
_atom_site_aniso_type_symbol
_atom_site_aniso_U_11
_atom_site_aniso_U_22
_atom_site_aniso_U_33
_atom_site_aniso_U_12
_atom_site_aniso_U_13
_atom_site_aniso_U_23
K1 K1+ 0.0360(14) 0.0256(12) 0.0104(10) 0.0244(10) 0. 0.
Ba1 Ba2+ 0.0360(14) 0.0256(12) 0.0104(10) 0.0244(10) 0. 0.
Ba2 Ba2+ 0.0158(4) 0.0246(6) 0.0188(5) 0.0123(3) -0.00510(17) -0.0102(3)
K2 K1+ 0.0158(4) 0.0246(6) 0.0188(5) 0.0123(3) -0.00510(17) -0.0102(3)
Ga1 Ga3+ 0.0211(6) 0.0211(6) 0.0166(9) 0.0105(3) 0. 0.
Ga2 Ga3+ 0.0093(6) 0.0093(6) 0.0128(8) 0.0047(3) 0. 0.
B1 B3+ 0.017(7) 0.022(6) 0.037(8) 0.007(5) -0.006(5) -0.014(6)
Li1 Li1+ 0.007(7) 0.007(7) 0.008(11) 0.003(3) 0. 0.
F1 F1- 0.024(4) 0.024(4) 0.021(7) 0.012(2) 0. 0.
O1 O2- 0.022(3) 0.015(3) 0.038(4) 0.010(3) -0.012(3) -0.011(3)
O2 O2- 0.019(4) 0.027(4) 0.047(5) 0.013(3) -0.004(3) -0.013(4)
O3 O2- 0.052(3) 0.052(3) 0.053(3) 0.0261(15) -0.0018(10) 0.0010(10)
O4 O2- 0.11(2) 0.11(2) 0.009(10) 0.055(10) 0. 0.
O5 O2- 0.015(15) 0.025(16) 0.018(13) -0.003(12) 0. 0.
#End of TTdata_264353-ICSD
#
