(C) 2022 by FIZ Karlsruhe - Leibniz Institute for Information Infrastructure.  All rights reserved.
data_252842-ICSD
_database_code_ICSD 252842
_audit_creation_date 2017-08-01
_chemical_name_common 'Strontium berylloborate fluoride *'
_chemical_formula_structural 'Sr3 ((Be0.44 B0.56)3 B3 O10) (Be (O0.56 F0.44)3)'
_chemical_formula_sum 'B4.68 Be2.32 F1.32 O11.68 Sr3'
_chemical_name_structure_type Sr3Be2B5O12(OH)
_exptl_crystal_density_diffrn 3.52
_diffrn_ambient_temperature 293.
_citation_title

;
A deep-ultraviolet nonlinear optical crystal: strontium beryllium borate
fluoride with planar Be(O/F)3 groups
;
loop_
_citation_id
_citation_journal_full
_citation_year
_citation_journal_volume
_citation_page_first
_citation_page_last
_citation_journal_id_ASTM
primary 'Chemistry of Materials' 2016 28 4563 4571 CMATEX
loop_
_citation_author_citation_id
_citation_author_name
primary 'Yu, Na'
primary 'Wang, Shichao'
primary 'Ye, Ning'
primary 'Liang, Fei'
primary 'Lin, Zheshuai'
primary 'Luo, Min'
primary 'Poeppelmeier, Kenneth R.'
_cell_length_a 10.3179(11)
_cell_length_b 10.3179(11)
_cell_length_c 8.3958(13)
_cell_angle_alpha 90
_cell_angle_beta 90
_cell_angle_gamma 120
_cell_volume 774.06
_cell_formula_units_Z 3
_space_group_name_H-M_alt 'R 3 m H'
_space_group_IT_number 160
loop_
_space_group_symop_id
_space_group_symop_operation_xyz
1 '-x+y, y, z'
2 'x, x-y, z'
3 '-y, -x, z'
4 '-x+y, -x, z'
5 '-y, x-y, z'
6 'x, y, z'
7 '-x+y+2/3, y+1/3, z+1/3'
8 'x+2/3, x-y+1/3, z+1/3'
9 '-y+2/3, -x+1/3, z+1/3'
10 '-x+y+2/3, -x+1/3, z+1/3'
11 '-y+2/3, x-y+1/3, z+1/3'
12 'x+2/3, y+1/3, z+1/3'
13 '-x+y+1/3, y+2/3, z+2/3'
14 'x+1/3, x-y+2/3, z+2/3'
15 '-y+1/3, -x+2/3, z+2/3'
16 '-x+y+1/3, -x+2/3, z+2/3'
17 '-y+1/3, x-y+2/3, z+2/3'
18 'x+1/3, y+2/3, z+2/3'
loop_
_atom_type_symbol
_atom_type_oxidation_number
Sr2+ 2
Be2+ 2
B3+ 3
F1- -1
O2- -2
loop_
_atom_site_label
_atom_site_type_symbol
_atom_site_symmetry_multiplicity
_atom_site_Wyckoff_symbol
_atom_site_fract_x
_atom_site_fract_y
_atom_site_fract_z
_atom_site_U_iso_or_equiv
_atom_site_occupancy
Sr1 Sr2+ 9 b 0.13830(3) 0.27660(6) 0.33831(6) 0.01518(19) 1
Be1 Be2+ 3 a 0 0 0.526(3) 0.041(5) 1
Be2 Be2+ 9 b 0.5820(4) 0.1639(7) 0.3103(8) 0.0122(14) 0.44(7)
B1 B3+ 9 b 0.5820(4) 0.1639(7) 0.3103(8) 0.0122(14) 0.56(7)
B2 B3+ 9 b 0.3592(7) 0.1796(4) 0.2022(7) 0.0119(14) 1
F1 F1- 9 b -0.0829(2) -0.1658(5) 0.5069(5) 0.0213(13) 0.44(7)
O1 O2- 9 b -0.0829(2) -0.1658(5) 0.5069(5) 0.0213(13) 0.56(7)
O2 O2- 9 b 0.2103(5) 0.1052(3) 0.1565(5) 0.0196(9) 1
O3 O2- 3 a 0.6667 0.3333 0.2887(8) 0.0113(13) 1
O4 O2- 18 c 0.4264(3) 0.0966(3) 0.2297(4) 0.0152(6) 1
loop_
_atom_site_aniso_label
_atom_site_aniso_type_symbol
_atom_site_aniso_U_11
_atom_site_aniso_U_22
_atom_site_aniso_U_33
_atom_site_aniso_U_12
_atom_site_aniso_U_13
_atom_site_aniso_U_23
Sr1 Sr2+ 0.0135(2) 0.0184(3) 0.0152(3) 0.00918(16) -0.00104(10) -0.0021(2)
Be1 Be2+ 0.018(6) 0.018(6) 0.087(16) 0.009(3) 0 0
Be2 Be2+ 0.007(2) 0.008(3) 0.022(3) 0.0042(15) -0.0003(12) -0.001(2)
B1 B3+ 0.007(2) 0.008(3) 0.022(3) 0.0042(15) -0.0003(12) -0.001(2)
B2 B3+ 0.009(3) 0.013(2) 0.013(4) 0.0044(15) 0.002(2) 0.0011(11)
F1 F1- 0.0184(18) 0.025(2) 0.023(2) 0.0124(12) 0.0021(9) 0.0041(18)
O1 O2- 0.0184(18) 0.025(2) 0.023(2) 0.0124(12) 0.0021(9) 0.0041(18)
O2 O2- 0.011(2) 0.0196(17) 0.025(2) 0.0054(12) 0.0032(19) 0.0016(10)
O3 O2- 0.008(2) 0.008(2) 0.018(3) 0.0041(10) 0 0
O4 O2- 0.0159(15) 0.0126(14) 0.0199(15) 0.0092(12) -0.0018(12) -0.0016(12)
#End of TTdata_252842-ICSD
#
