(C) 2022 by FIZ Karlsruhe - Leibniz Institute for Information Infrastructure.  All rights reserved.
data_180593-ICSD
_database_code_ICSD 180593
_audit_creation_date 2011-08-01
_audit_update_record 2013-02-01
_chemical_name_common
'Barium aluminium gallium borate fluoride (1/0.61/0.39/1/2)'
_chemical_formula_structural 'Ba (Al0.61 Ga0.39) (B O3) F2'
_chemical_formula_sum 'Al0.61 B1 Ba1 F2 Ga0.39 O3'
_chemical_name_structure_type AlBaBO3F2
_exptl_crystal_density_diffrn 4.76
_citation_title 'Growth and characterization of Ba (Al, Ga) B O3 F2 crystal'
loop_
_citation_id
_citation_journal_full
_citation_year
_citation_journal_volume
_citation_page_first
_citation_page_last
_citation_journal_id_ASTM
primary 'Journal of Crystal Growth' 2011 318 962 965 JCRGAE
loop_
_citation_author_citation_id
_citation_author_name
primary 'Wang, Jia Nuo'
primary 'Yue, Yin Chao'
primary 'Yao, Ji Yong'
primary 'Hu, Zhang Gui'
_cell_length_a 4.8749
_cell_length_b 4.8749
_cell_length_c 9.4195
_cell_angle_alpha 90.
_cell_angle_beta 90.
_cell_angle_gamma 120.
_cell_volume 193.86
_cell_formula_units_Z 2
_space_group_name_H-M_alt 'P -6 2 c'
_space_group_IT_number 190
loop_
_space_group_symop_id
_space_group_symop_operation_xyz
1 '-x, -x+y, -z'
2 'x-y, -y, -z'
3 'y, x, -z'
4 '-x, -x+y, z+1/2'
5 'x-y, -y, z+1/2'
6 'y, x, z+1/2'
7 '-x+y, -x, -z+1/2'
8 '-y, x-y, -z+1/2'
9 'x, y, -z+1/2'
10 '-x+y, -x, z'
11 '-y, x-y, z'
12 'x, y, z'
loop_
_atom_type_symbol
_atom_type_oxidation_number
Ba2+ 2
Ga3+ 3
Al3+ 3
B3+ 3
O2- -2
F1- -1
loop_
_atom_site_label
_atom_site_type_symbol
_atom_site_symmetry_multiplicity
_atom_site_Wyckoff_symbol
_atom_site_fract_x
_atom_site_fract_y
_atom_site_fract_z
_atom_site_U_iso_or_equiv
_atom_site_occupancy
Ba1 Ba2+ 2 a 0 0 0.5 0.00158(16) 1.
Ga1 Ga3+ 2 d 0.6667 0.3333 0.25 0.0010(3) 0.389(5)
Al1 Al3+ 2 d 0.6667 0.3333 0.25 0.0010(3) 0.611(5)
B1 B3+ 2 c 0.3333 0.6667 0.25 0.0021(11) 1.
O1 O2- 6 h 0.0617(6) 0.6838(7) 0.25 0.0028(4) 1.
F1 F1- 4 f 0.6667 0.3333 0.0504(2) 0.0054(4) 1.
#End of TTdata_180593-ICSD
#
