(C) 2022 by FIZ Karlsruhe - Leibniz Institute for Information Infrastructure.  All rights reserved.
data_53977-ICSD
_database_code_ICSD 53977
_audit_creation_date 2003-04-01
_audit_update_record 2013-02-01
_chemical_name_common 'Magnesium fluoride'
_chemical_formula_structural 'Mg F2'
_chemical_formula_sum 'F2 Mg1'
_chemical_name_structure_type Rutile#TiO2
_chemical_name_mineral Sellaite
_exptl_crystal_density_diffrn 3.14
_citation_title 'Crystal lattices of LiF and MgF2 and their isomorphism'
loop_
_citation_id
_citation_journal_full
_citation_year
_citation_journal_volume
_citation_page_first
_citation_page_last
_citation_journal_id_ASTM
primary

;
Atti della Accademia Nazionale dei Lincei, Classe di Scienze Fisiche,
Matematiche e Naturali, Rendiconti, Serie 7
; 1925 1 664 671 AANL7U
loop_
_citation_author_citation_id
_citation_author_name
primary 'Ferrari, A.'
_cell_length_a 4.64(2)
_cell_length_b 4.64
_cell_length_c 3.06
_cell_angle_alpha 90.
_cell_angle_beta 90.
_cell_angle_gamma 90.
_cell_volume 65.88
_cell_formula_units_Z 2
_space_group_name_H-M_alt 'P 42/m n m'
_space_group_IT_number 136
loop_
_space_group_symop_id
_space_group_symop_operation_xyz
1 '-y+1/2, x+1/2, -z+1/2'
2 'y+1/2, -x+1/2, -z+1/2'
3 'y, x, -z'
4 '-y, -x, -z'
5 'y+1/2, -x+1/2, z+1/2'
6 '-y+1/2, x+1/2, z+1/2'
7 '-y, -x, z'
8 'y, x, z'
9 'x+1/2, -y+1/2, -z+1/2'
10 '-x+1/2, y+1/2, -z+1/2'
11 'x, y, -z'
12 '-x, -y, -z'
13 '-x+1/2, y+1/2, z+1/2'
14 'x+1/2, -y+1/2, z+1/2'
15 '-x, -y, z'
16 'x, y, z'
loop_
_atom_type_symbol
_atom_type_oxidation_number
Mg2+ 2
F1- -1
loop_
_atom_site_label
_atom_site_type_symbol
_atom_site_symmetry_multiplicity
_atom_site_Wyckoff_symbol
_atom_site_fract_x
_atom_site_fract_y
_atom_site_fract_z
_atom_site_B_iso_or_equiv
_atom_site_occupancy
Mg1 Mg2+ 2 a 0 0 0 . 1.
F1 F1- 4 f 0.31 0.31 0 . 1.
#End of TTdata_53977-ICSD
#
