(C) 2022 by FIZ Karlsruhe - Leibniz Institute for Information Infrastructure.  All rights reserved.
data_45757-ICSD
_database_code_ICSD 45757
_audit_creation_date 2022-08-01
_chemical_name_common 'Lanthanum triscandium tetrakis(orthoborate)'
_chemical_formula_structural 'La Sc3 (B O3)4'
_chemical_formula_sum 'B4 La1 O12 Sc3'
_chemical_name_structure_type NdAl3(BO3)4
_exptl_crystal_density_diffrn 3.81
_citation_title

;
Study of RBO$_3$-ScBO$_3$ phase diagrams and RSc$_3$(BO$_3$)$_4$ orthoborates
(R = La, Pr and Nd)
;
loop_
_citation_id
_citation_journal_full
_citation_year
_citation_journal_volume
_citation_page_first
_citation_page_last
_citation_journal_id_ASTM
primary 'Journal of Alloys and Compounds' 2022 905 '' '' JALCEU
loop_
_citation_author_citation_id
_citation_author_name
primary 'Jamous, A.Y.'
primary 'Kuznetsov, A.B.'
primary 'Kokh, K.A.'
primary 'Svetlichnyi, V.A.'
primary 'Kononova, N.G.'
primary 'Shevchenko, V.S.'
primary 'Ryadun, A.A.'
primary 'Kokh, A.E.'
_cell_length_a 7.7424(6)
_cell_length_b 9.8633(3)
_cell_length_c 12.0674(12)
_cell_angle_alpha 90.
_cell_angle_beta 105.427(3)
_cell_angle_gamma 90.
_cell_volume 888.33
_cell_formula_units_Z 4
_space_group_name_H-M_alt 'C 1 c 1'
_space_group_IT_number 9
loop_
_space_group_symop_id
_space_group_symop_operation_xyz
1 'x, -y, z+1/2'
2 'x, y, z'
3 'x+1/2, -y+1/2, z+1/2'
4 'x+1/2, y+1/2, z'
loop_
_atom_type_symbol
_atom_type_oxidation_number
Sc3+ 3
La3+ 3
B3+ 3
O2- -2
loop_
_atom_site_label
_atom_site_type_symbol
_atom_site_symmetry_multiplicity
_atom_site_Wyckoff_symbol
_atom_site_fract_x
_atom_site_fract_y
_atom_site_fract_z
_atom_site_U_iso_or_equiv
_atom_site_occupancy
Sc1 Sc3+ 4 a 0.246(5) 0.7514(3) -0.0273(3) 0.0027(3) 1.
Sc2 Sc3+ 4 a 0.831(5) 0.7459(3) 0.0182(3) 0.0027(3) 1.
Sc3 Sc3+ 4 a 0.803(4) 0.5637(8) 0.2556(5) 0.0107(5) 1.
La1 La3+ 4 a 0.782(4) 0.0311(3) 0.2513(2) 0.0107(5) 1.
B1 B3+ 4 a 0.583(6) 0.311(5) 0.268(5) 0.0265(7) 1.
B2 B3+ 4 a 0.048(3) 0.478(4) -0.006(8) 0.0265(7) 1.
B3 B3+ 4 a 0.984(6) 0.699(6) 0.719(3) 0.0265(7) 1.
B4 B3+ 4 a 0.542(4) 0.529(2) -0.005(8) 0.0265(7) 1.
O1 O2- 4 a 0.581(8) 0.446(1) 0.248(6) 0.0156(2) 1.
O2 O2- 4 a 0.396(3) 0.596(5) -0.07(3) 0.0156(2) 1.
O3 O2- 4 a 0.984(3) 0.559(3) 0.73(6) 0.0156(2) 1.
O4 O2- 4 a 0.138(5) 0.764(4) 0.787(3) 0.0156(2) 1.
O5 O2- 4 a 0.904(8) 0.401(5) -0.073(3) 0.0156(2) 1.
O6 O2- 4 a 0.726(4) 0.247(2) 0.345(2) 0.0156(2) 1.
O7 O2- 4 a 0.464(2) 0.223(1) 0.199(3) 0.0156(2) 1.
O8 O2- 4 a 0.195(8) 0.41(9) 0.062(4) 0.0156(2) 1.
O9 O2- 4 a 0.051(4) 0.612(5) 0.008(7) 0.0156(2) 1.
O10 O2- 4 a 0.543(2) 0.382(4) -0.004(8) 0.0156(2) 1.
O11 O2- 4 a 0.862(5) 0.768(6) 0.64(1) 0.0156(2) 1.
O12 O2- 4 a 0.685(9) 0.589(8) 0.065(2) 0.0156(2) 1.
#End of TTdata_45757-ICSD
#
