(C) 2022 by FIZ Karlsruhe - Leibniz Institute for Information Infrastructure.  All rights reserved.
data_115562-ICSD
_database_code_ICSD 115562
_audit_creation_date 2022-08-01
_chemical_name_common
'Decarubidium trilithium tetrascandium 36-oxofluorododecagermanate'
_chemical_formula_structural 'Rb10 Li3 Sc4 (Ge12 O36 F)'
_chemical_formula_sum 'F1 Ge12 Li3 O36 Rb10 Sc4'
_exptl_crystal_density_diffrn 3.86
_diffrn_ambient_temperature 293.
_citation_title

;
Synthesis, structure determination, and characterizations of a polar
salt-inclusion scandium germanate,
Rb\(_{10}\)Li\(_3\)Sc\(_4\)Ge\(_{12}\)O\(_{36}\)F
;
loop_
_citation_id
_citation_journal_full
_citation_year
_citation_journal_volume
_citation_page_first
_citation_page_last
_citation_journal_id_ASTM
primary 'Inorganic Chemistry' 2022 61 1973 1981 INOCAJ
loop_
_citation_author_citation_id
_citation_author_name
primary 'Tang, Chuan'
primary 'Xia, Mingjun'
primary 'Li, Rukang'
_cell_length_a 10.7587(3)
_cell_length_b 10.7587(3)
_cell_length_c 21.6691(10)
_cell_angle_alpha 90.
_cell_angle_beta 90.
_cell_angle_gamma 120.
_cell_volume 2172.15
_cell_formula_units_Z 2
_space_group_name_H-M_alt 'P 3 1 c'
_space_group_IT_number 159
loop_
_space_group_symop_id
_space_group_symop_operation_xyz
1 '-x, -x+y, z+1/2'
2 'x-y, -y, z+1/2'
3 'y, x, z+1/2'
4 '-x+y, -x, z'
5 '-y, x-y, z'
6 'x, y, z'
loop_
_atom_type_symbol
_atom_type_oxidation_number
Rb1+ 1
Sc3+ 3
Ge4+ 4
F1- -1
O2- -2
Li1+ 1
loop_
_atom_site_label
_atom_site_type_symbol
_atom_site_symmetry_multiplicity
_atom_site_Wyckoff_symbol
_atom_site_fract_x
_atom_site_fract_y
_atom_site_fract_z
_atom_site_U_iso_or_equiv
_atom_site_occupancy
Rb1 Rb1+ 6 c 0.92365(10) 0.57830(11) 0.82386(5) 0.0302(2) 1
Rb2 Rb1+ 2 a 1. 0. 1.07902(10) 0.0406(5) 1
Rb3 Rb1+ 6 c 1.31597(10) 0.42048(11) 0.97273(5) 0.0264(2) 1
Rb4 Rb1+ 6 c 1.29442(12) 0.41585(13) 0.67402(6) 0.0405(3) 1
Sc1 Sc3+ 2 a 1. 0. 0.76480(11) 0.0070(5) 1
Sc2 Sc3+ 2 b 0.6667 0.3333 0.63793(13) 0.0122(5) 1
Sc3 Sc3+ 2 a 1. 0. 0.90466(11) 0.0071(5) 1
Sc4 Sc3+ 2 b 0.6667 0.3333 1.03187(12) 0.0072(5) 1
Ge1 Ge4+ 6 c 1.08067(8) 0.33174(9) 0.82795(4) 0.00847(17) 1
Ge2 Ge4+ 6 c 0.89434(9) 0.24238(9) 0.95063(4) 0.00895(19) 1
Ge3 Ge4+ 6 c 0.90120(9) 0.22762(9) 0.70167(4) 0.00833(19) 1
Ge4 Ge4+ 6 c 1.00894(9) 0.40642(8) 1.07711(4) 0.00866(18) 1
F1 F1- 2 b 0.6667 0.3333 0.8321(5) 0.028(2) 1
O1 O2- 6 c 1.1444(7) 0.5791(6) 1.0891(3) 0.0185(13) 1
O2 O2- 6 c 0.7492(6) 0.2416(6) 0.7043(3) 0.0121(12) 1
O3 O2- 6 c 0.9460(7) 0.3284(6) 0.8772(3) 0.0159(13) 1
O4 O2- 6 c 0.8400(6) 0.3802(7) 1.0874(3) 0.0165(12) 1
O5 O2- 6 c 1.0334(6) 0.3586(6) 0.7522(3) 0.0135(11) 1
O6 O2- 6 c 1.2485(6) 0.4690(7) 0.8433(3) 0.0213(14) 1
O7 O2- 6 c 0.7279(6) 0.2195(6) 0.9664(2) 0.0117(11) 1
O8 O2- 6 c 0.8935(6) 0.0819(7) 0.9534(3) 0.0169(13) 1
O9 O2- 6 c 1.0329(6) 0.3640(7) 1.0001(2) 0.0153(13) 1
O10 O2- 6 c 0.8685(6) 0.0577(6) 0.7195(2) 0.0147(12) 1
O11 O2- 6 c 0.9781(6) 0.2603(7) 0.6262(3) 0.0142(12) 1
O12 O2- 6 c 1.0652(6) 0.1643(6) 0.8340(2) 0.0127(12) 1
Li1 Li1+ 2 b 1.3333 0.6667 0.8353(10) 0.0071(13) 1
Li2 Li1+ 2 b 0.6667 0.3333 0.7552(13) 0.034(7) 1
Li3 Li1+ 2 b 0.6667 0.3333 0.9133(13) 0.020(5) 1
loop_
_atom_site_aniso_label
_atom_site_aniso_type_symbol
_atom_site_aniso_U_11
_atom_site_aniso_U_22
_atom_site_aniso_U_33
_atom_site_aniso_U_12
_atom_site_aniso_U_13
_atom_site_aniso_U_23
Rb1 Rb1+ 0.0195(5) 0.0401(6) 0.0280(5) 0.0126(4) -0.0032(4) 0.0059(4)
Rb2 Rb1+ 0.0405(7) 0.0405(7) 0.0407(10) 0.0203(3) 0. 0.
Rb3 Rb1+ 0.0208(5) 0.0307(5) 0.0307(5) 0.0151(4) -0.0086(4) -0.0129(4)
Rb4 Rb1+ 0.0288(6) 0.0361(6) 0.0555(7) 0.0153(5) 0.0115(5) 0.0256(5)
Sc1 Sc3+ 0.0061(7) 0.0061(7) 0.0088(11) 0.0031(3) 0. 0.
Sc2 Sc3+ 0.0080(8) 0.0080(8) 0.0207(14) 0.0040(4) 0. 0.
Sc3 Sc3+ 0.0073(7) 0.0073(7) 0.0066(11) 0.0037(4) 0. 0.
Sc4 Sc3+ 0.0031(7) 0.0031(7) 0.0153(12) 0.0016(4) 0. 0.
Ge1 Ge4+ 0.0075(4) 0.0072(4) 0.0108(3) 0.0037(3) -0.0009(3) -0.0008(3)
Ge2 Ge4+ 0.0082(4) 0.0116(4) 0.0094(4) 0.0066(4) 0.0005(3) -0.0008(3)
Ge3 Ge4+ 0.0075(4) 0.0083(4) 0.0099(4) 0.0045(3) 0.0008(3) 0.0018(3)
Ge4 Ge4+ 0.0070(4) 0.0080(4) 0.0105(3) 0.0033(3) -0.0008(3) -0.0003(3)
F1 F1- 0.029(3) 0.029(3) 0.024(5) 0.0147(17) 0. 0.
O1 O2- 0.011(3) 0.013(3) 0.023(3) 0.000(3) -0.004(2) 0.003(2)
O2 O2- 0.009(3) 0.013(3) 0.017(3) 0.009(3) 0.005(2) 0.000(2)
O3 O2- 0.023(3) 0.021(3) 0.012(3) 0.017(3) 0.006(2) 0.008(2)
O4 O2- 0.015(3) 0.025(3) 0.016(3) 0.015(3) -0.010(2) -0.012(3)
O5 O2- 0.008(3) 0.014(3) 0.017(3) 0.005(2) -0.001(2) 0.003(2)
O6 O2- 0.005(3) 0.012(3) 0.039(4) -0.001(2) -0.008(3) 0.003(3)
O7 O2- 0.0116(14) 0.0121(14) 0.0129(14) 0.0069(10) 0.0008(9) -0.0010(9)
O8 O2- 0.016(3) 0.020(3) 0.023(3) 0.015(2) 0.008(2) 0.003(2)
O9 O2- 0.006(3) 0.026(3) 0.010(3) 0.004(3) 0.004(2) -0.002(2)
O10 O2- 0.015(3) 0.015(3) 0.012(3) 0.006(3) -0.005(2) 0.004(2)
O11 O2- 0.013(3) 0.015(3) 0.015(3) 0.007(3) 0.004(2) 0.004(2)
O12 O2- 0.017(3) 0.008(3) 0.011(3) 0.004(2) 0.003(2) -0.001(2)
Li1 Li1+ 0.0069(12) 0.0069(12) 0.0075(17) 0.0034(6) 0. 0.
Li2 Li1+ 0.045(12) 0.045(12) 0.011(13) 0.023(6) 0. 0.
Li3 Li1+ 0.017(8) 0.017(8) 0.025(14) 0.009(4) 0. 0.
#End of TTdata_115562-ICSD
