(C) 2022 by FIZ Karlsruhe - Leibniz Institute for Information Infrastructure.  All rights reserved.
data_161479-ICSD
_database_code_ICSD 161479
_audit_creation_date 2009-02-01
_chemical_name_common 'Lithium iron phosphate(V) - C-coated'
_chemical_formula_structural 'Li Fe (P O4)'
_chemical_formula_sum 'Fe1 Li1 O4 P1'
_chemical_name_structure_type Olivine#Mg2SiO4
_exptl_crystal_density_diffrn 3.6
_citation_title

;
Electrochemical properties of carbon-coated Li Fe P O4 synthesized by a
modified mechanical activation process
;
loop_
_citation_id
_citation_journal_full
_citation_year
_citation_journal_volume
_citation_page_first
_citation_page_last
_citation_journal_id_ASTM
primary 'Journal of Physics and Chemistry of Solids' 2008 69 2371 2377 JPCSAW
loop_
_citation_author_citation_id
_citation_author_name
primary 'Kim Jae-Kwang'
primary 'Cheruvally, G.'
primary 'Ahn Jou-Hyeon'
primary 'Hwang Gil-Chan'
primary 'Choi Jin-Beom'
_cell_length_a 10.3229(3)
_cell_length_b 6.0052(2)
_cell_length_c 4.6939(1)
_cell_angle_alpha 90.
_cell_angle_beta 90.
_cell_angle_gamma 90.
_cell_volume 290.98
_cell_formula_units_Z 4
_space_group_name_H-M_alt 'P n m a'
_space_group_IT_number 62
loop_
_space_group_symop_id
_space_group_symop_operation_xyz
1 'x+1/2, y, -z+1/2'
2 'x, -y+1/2, z'
3 '-x+1/2, y+1/2, z+1/2'
4 '-x, -y, -z'
5 '-x+1/2, -y, z+1/2'
6 '-x, y+1/2, -z'
7 'x+1/2, -y+1/2, -z+1/2'
8 'x, y, z'
loop_
_atom_type_symbol
_atom_type_oxidation_number
Li1+ 1
Fe2+ 2
P5+ 5
O2- -2
loop_
_atom_site_label
_atom_site_type_symbol
_atom_site_symmetry_multiplicity
_atom_site_Wyckoff_symbol
_atom_site_fract_x
_atom_site_fract_y
_atom_site_fract_z
_atom_site_B_iso_or_equiv
_atom_site_occupancy
Li1 Li1+ 4 a 0 0 0 0.8 1.
Fe1 Fe2+ 4 c 0.2820(1) 0.25 0.9734(4) 1. 1.
P1 P5+ 4 c 0.0951(2) 0.25 0.4187(4) 0.9 1.
O1 O2- 4 c 0.0922(6) 0.25 0.744(1) 0.8 1.
O2 O2- 4 c 0.4547(6) 0.25 0.211(1) 0.8 1.
O3 O2- 8 d 0.1626(5) 0.0477(7) 0.2844(7) 0.8 1.
#End of TTdata_161479-ICSD
#
