(C) 2022 by FIZ Karlsruhe - Leibniz Institute for Information Infrastructure.  All rights reserved.
data_241943-ICSD
_database_code_ICSD 241943
_audit_creation_date 2017-08-01
_chemical_name_common 'Lithium iron phosphate - C, doped with V and F'
_chemical_formula_structural 'Li (Fe0.96 V0.04) (P0.98 F0.02) O4'
_chemical_formula_sum 'F0.02 Fe0.96 Li1 O4 P0.98 V0.04'
_chemical_name_structure_type Olivine#Mg2SiO4
_exptl_crystal_density_diffrn 3.6
_citation_title

;
Enhanced Electrochemical Performances of LiFePO4/C via V and F Co-doping for
Lithium-Ion Batteries
;
_publ_section_comment 'Cell and Type only determined'
loop_
_citation_id
_citation_journal_full
_citation_year
_citation_journal_volume
_citation_page_first
_citation_page_last
_citation_journal_id_ASTM
primary 'Chinese Journal of Chemical Physics' 2016 29 303 307 CJCPA6
loop_
_citation_author_citation_id
_citation_author_name
primary 'Zhan, Tao-tao'
primary 'Li, Chao'
primary 'Jin, Yun-xia'
primary 'Xiao, Shun-hua'
_cell_length_a 10.3002
_cell_length_b 6.0037
_cell_length_c 4.691
_cell_angle_alpha 90
_cell_angle_beta 90
_cell_angle_gamma 90
_cell_volume 290.08
_cell_formula_units_Z 4
_space_group_name_H-M_alt 'P n m a'
_space_group_IT_number 62
loop_
_space_group_symop_id
_space_group_symop_operation_xyz
1 'x+1/2, y, -z+1/2'
2 'x, -y+1/2, z'
3 '-x+1/2, y+1/2, z+1/2'
4 '-x, -y, -z'
5 '-x+1/2, -y, z+1/2'
6 '-x, y+1/2, -z'
7 'x+1/2, -y+1/2, -z+1/2'
8 'x, y, z'
loop_
_atom_type_symbol
_atom_type_oxidation_number
Li1+ 1
Fe2+ 2
V5+ 5
P5+ 5
F1- -1
O2- -2
loop_
_atom_site_label
_atom_site_type_symbol
_atom_site_symmetry_multiplicity
_atom_site_Wyckoff_symbol
_atom_site_fract_x
_atom_site_fract_y
_atom_site_fract_z
_atom_site_B_iso_or_equiv
_atom_site_occupancy
Li1 Li1+ 4 a 0 0 0 . 1
Fe1 Fe2+ 4 c 0.28 0.25 0.97 . 0.96
V1 V5+ 4 c 0.28 0.25 0.97 . 0.04
P1 P5+ 4 c 0.09 0.25 0.42 . 0.98
F1 F1- 4 c 0.09 0.25 0.42 . 0.02
O1 O2- 4 c 0.097 0.25 0.74 . 1.
O2 O2- 4 c 0.46 0.25 0.21 . 1.
O3 O2- 8 d 0.17 0.047 0.29 . 1.
#End of TTdata_241943-ICSD
#
