(C) 2022 by FIZ Karlsruhe - Leibniz Institute for Information Infrastructure.  All rights reserved.
data_290334-ICSD
_database_code_ICSD 290334
_audit_creation_date 2014-02-01
_chemical_name_common 'Lithium iron phosphate(V)'
_chemical_formula_structural 'Li Fe (P O4)'
_chemical_formula_sum 'Fe1 Li1 O4 P1'
_chemical_name_structure_type Olivine#Mg2SiO4
_exptl_crystal_density_diffrn 3.59
_citation_title

;
Design of a new lithium ion battery test cell for in-situ neutron diffraction
measurements
;
loop_
_citation_id
_citation_journal_full
_citation_year
_citation_journal_volume
_citation_page_first
_citation_page_last
_citation_journal_id_ASTM
primary 'Journal of Power Sources' 2013 226 249 255 JPSODZ
loop_
_citation_author_citation_id
_citation_author_name
primary 'Roberts, Matthew'
primary 'Biendicho, Jordi Jacas'
primary 'Hull, Stephen'
primary 'Beran, Premysl'
primary 'Gustafsson, Torbjoern'
primary 'Svensson, Gunnar'
primary 'Edstroem, Kristina'
_cell_length_a 10.3333(3)
_cell_length_b 6.0095(2)
_cell_length_c 4.6949(1)
_cell_angle_alpha 90.
_cell_angle_beta 90.
_cell_angle_gamma 90.
_cell_volume 291.54
_cell_formula_units_Z 4
_space_group_name_H-M_alt 'P n m a'
_space_group_IT_number 62
loop_
_space_group_symop_id
_space_group_symop_operation_xyz
1 'x+1/2, y, -z+1/2'
2 'x, -y+1/2, z'
3 '-x+1/2, y+1/2, z+1/2'
4 '-x, -y, -z'
5 '-x+1/2, -y, z+1/2'
6 '-x, y+1/2, -z'
7 'x+1/2, -y+1/2, -z+1/2'
8 'x, y, z'
loop_
_atom_type_symbol
_atom_type_oxidation_number
Li1+ 1
Fe2+ 2
P5+ 5
O2- -2
loop_
_atom_site_label
_atom_site_type_symbol
_atom_site_symmetry_multiplicity
_atom_site_Wyckoff_symbol
_atom_site_fract_x
_atom_site_fract_y
_atom_site_fract_z
_atom_site_U_iso_or_equiv
_atom_site_occupancy
Li1 Li1+ 4 a 0 0 0 0.0285(48) 1.
Fe1 Fe2+ 4 c 0.2822(3) 0.25 0.9704(10) 0.0082(7) 1.
P1 P5+ 4 c 0.0949(6) 0.25 0.4181(13) 0.0043(12) 1.
O1 O2- 4 c 0.0961(7) 0.25 0.7477(14) 0.0101(12) 1.
O2 O2- 4 c 0.4570(5) 0.25 0.2011(13) 0.0062(13) 1.
O3 O2- 8 d 0.1651(4) 0.0499(7) 0.2819(8) 0.0050(7) 1.
#End of TTdata_290334-ICSD
#
