(C) 2022 by FIZ Karlsruhe - Leibniz Institute for Information Infrastructure.  All rights reserved.
data_183875-ICSD
_database_code_ICSD 183875
_audit_creation_date 2012-08-01
_chemical_name_common 'Iron phosphate'
_chemical_formula_structural 'Fe (P O4)'
_chemical_formula_sum 'Fe1 O4 P1'
_chemical_name_structure_type FePO4
_exptl_crystal_density_diffrn 3.6
_citation_title

;
Structural, magnetic and electrochemical study of a new active phase obtained
by oxidation of a Li Fe P O4/C composite
;
loop_
_citation_id
_citation_journal_full
_citation_year
_citation_journal_volume
_citation_page_first
_citation_page_last
_citation_journal_id_ASTM
primary 'Journal of Materials Chemistry' 2012 22 4735 4743 JMACEP
loop_
_citation_author_citation_id
_citation_author_name
primary 'Palomares, V.'
primary 'Goni, A.'
primary 'Iturrondobeitia, A.'
primary 'Lezama, L.'
primary 'de Meatza, I.'
primary 'Bengoechea, M.'
primary 'Rojo, T.'
_cell_length_a 10.025(1)
_cell_length_b 5.862(5)
_cell_length_c 4.737(4)
_cell_angle_alpha 90.
_cell_angle_beta 90.
_cell_angle_gamma 90.
_cell_volume 278.38
_cell_formula_units_Z 4
_space_group_name_H-M_alt 'P n m a'
_space_group_IT_number 62
loop_
_space_group_symop_id
_space_group_symop_operation_xyz
1 'x+1/2, y, -z+1/2'
2 'x, -y+1/2, z'
3 '-x+1/2, y+1/2, z+1/2'
4 '-x, -y, -z'
5 '-x+1/2, -y, z+1/2'
6 '-x, y+1/2, -z'
7 'x+1/2, -y+1/2, -z+1/2'
8 'x, y, z'
loop_
_atom_type_symbol
_atom_type_oxidation_number
Fe3+ 3
P5+ 5
O2- -2
loop_
_atom_site_label
_atom_site_type_symbol
_atom_site_symmetry_multiplicity
_atom_site_Wyckoff_symbol
_atom_site_fract_x
_atom_site_fract_y
_atom_site_fract_z
_atom_site_B_iso_or_equiv
_atom_site_occupancy
Fe1 Fe3+ 4 a 0 0 0 3.(1) 0.34(10)
Fe2 Fe3+ 4 c 0.274(5) 0.25 0.98(2) 1.6(7) 0.66(10)
P1 P5+ 4 c 0.098(8) 0.25 0.42(2) 1.5(2) 1.
O1 O2- 4 c 0.096(2) 0.25 0.721(3) 1.9(4) 1.
O2 O2- 4 c 0.44(2) 0.25 0.21(2) 1.1(1) 1.
O3 O2- 8 d 0.175(2) 0.03(2) 0.28(2) 1.7(6) 1.
#End of TTdata_183875-ICSD
#
