(C) 2022 by FIZ Karlsruhe - Leibniz Institute for Information Infrastructure.  All rights reserved.
data_238558-ICSD
_database_code_ICSD 238558
_audit_creation_date 2016-02-01
_chemical_name_common 'Lithium iron(II) phosphate'
_chemical_formula_structural 'Fe1.04 Li0.94 P0.92 O4'
_chemical_formula_sum 'Fe1.04 Li0.94 O4 P0.92'
_chemical_name_structure_type Olivine#Mg2SiO4
_exptl_crystal_density_diffrn 3.63
_citation_title

;
Singular structural and electrochemical properties in highly defective Li Fe P
O4 powders
;
loop_
_citation_id
_citation_journal_full
_citation_year
_citation_journal_volume
_citation_page_first
_citation_page_last
_citation_journal_id_ASTM
primary 'Chemistry of Materials' 2015 27 4261 4273 CMATEX
loop_
_citation_author_citation_id
_citation_author_name
primary 'Amisse, Robin'
primary 'Sougrati, Moulay Tahar'
primary 'Stievano, Lorenzo'
primary 'Davoisne, Carine'
primary 'Drazic, Goran'
primary 'Budic, Bojan'
primary 'Dominko, Robert'
primary 'Masquelier, Christian'
_cell_length_a 10.282(1)
_cell_length_b 5.947(1)
_cell_length_c 4.6982(2)
_cell_angle_alpha 90.
_cell_angle_beta 90.
_cell_angle_gamma 90.
_cell_volume 287.28
_cell_formula_units_Z 4
_space_group_name_H-M_alt 'P n m a'
_space_group_IT_number 62
loop_
_space_group_symop_id
_space_group_symop_operation_xyz
1 'x+1/2, y, -z+1/2'
2 'x, -y+1/2, z'
3 '-x+1/2, y+1/2, z+1/2'
4 '-x, -y, -z'
5 '-x+1/2, -y, z+1/2'
6 '-x, y+1/2, -z'
7 'x+1/2, -y+1/2, -z+1/2'
8 'x, y, z'
loop_
_atom_type_symbol
_atom_type_oxidation_number
Li1+ 1
Fe2+ 2.324
Li1+ 1
P5+ 5
O2- -2
loop_
_atom_site_label
_atom_site_type_symbol
_atom_site_symmetry_multiplicity
_atom_site_Wyckoff_symbol
_atom_site_fract_x
_atom_site_fract_y
_atom_site_fract_z
_atom_site_B_iso_or_equiv
_atom_site_occupancy
Li1 Li1+ 4 a 0 0 0 1.18 0.853(2)
Fe1 Fe2+ 4 a 0 0 0 1.18 0.147(2)
Fe2 Fe2+ 4 c 0.28025(23) 0.25 0.97660(55) 1.187(5) 0.896(2)
Li2 Li1+ 4 c 0.28025(23) 0.25 0.97660(55) 1.187(5) 0.092(2)
P1 P5+ 4 c 0.09523(43) 0.25 0.41407(63) 1.135(63) 0.923
O1 O2- 4 c 0.09696(44) 0.25 0.74493(83) 1.627(65) 1.
O2 O2- 4 c 0.45311(34) 0.25 0.20857(76) 1.549(78) 1.
O3 O2- 8 d 0.16693(31) 0.04310(43) 0.27882(53) 1.512(48) 1.
#End of TTdata_238558-ICSD
#
