(C) 2022 by FIZ Karlsruhe - Leibniz Institute for Information Infrastructure.  All rights reserved.
data_154120-ICSD
_database_code_ICSD 154120
_audit_creation_date 2007-04-01
_chemical_name_common 'Iron(III) phosphate(V)'
_chemical_formula_structural 'Fe (P O4)'
_chemical_formula_sum 'Fe1 O4 P1'
_chemical_name_structure_type Barite#BaSO4
_exptl_crystal_density_diffrn 3.67
_diffrn_ambient_temperature 298.
_citation_title

;
Crystal chemistry of the olivine-type Lix Fe P O4 system (0 <= x <= 1) between
5 and 370 C
;
loop_
_citation_id
_citation_journal_full
_citation_year
_citation_journal_volume
_citation_page_first
_citation_page_last
_citation_journal_id_ASTM
primary 'Solid State Sciences' 2005 7 1506 1516 SSSCFJ
loop_
_citation_author_citation_id
_citation_author_name
primary 'Delacourt, C.'
primary 'Rodriguez Carvajal, J.'
primary 'Schmitt, B.'
primary 'Tarascon, J.-M.'
primary 'Masquelier, C.'
_cell_length_a 5.809(3)
_cell_length_b 9.839(1)
_cell_length_c 4.776(1)
_cell_angle_alpha 90.
_cell_angle_beta 90.
_cell_angle_gamma 90.
_cell_volume 272.97
_cell_formula_units_Z 4
_space_group_name_H-M_alt 'P m n b'
_space_group_IT_number 62
loop_
_space_group_symop_id
_space_group_symop_operation_xyz
1 'x, y+1/2, -z+1/2'
2 '-x+1/2, y, z'
3 'x+1/2, -y+1/2, z+1/2'
4 '-x, -y, -z'
5 '-x, -y+1/2, z+1/2'
6 'x+1/2, -y, -z'
7 '-x+1/2, y+1/2, -z+1/2'
8 'x, y, z'
loop_
_atom_type_symbol
_atom_type_oxidation_number
Fe3+ 3
P5+ 5
O2- -2
loop_
_atom_site_label
_atom_site_type_symbol
_atom_site_symmetry_multiplicity
_atom_site_Wyckoff_symbol
_atom_site_fract_x
_atom_site_fract_y
_atom_site_fract_z
_atom_site_B_iso_or_equiv
_atom_site_occupancy
Fe1 Fe3+ 4 c 0.25 0.2744(9) 0.956(2) 0.58(7) 1.
P1 P5+ 4 c 0.25 0.102(2) 0.403(3) 0.9(1) 1.
O1 O2- 4 c 0.25 0.116(2) 0.712(3) 1.2(1) 1.
O2 O2- 4 c 0.25 0.443(2) 0.149(4) 1.3(1) 1.
O3 O2- 8 d 0.044(2) 0.166(1) 0.256(2) 0.85(8) 1.
#End of TTdata_154120-ICSD
#
