(C) 2022 by FIZ Karlsruhe - Leibniz Institute for Information Infrastructure.  All rights reserved.
data_92199-ICSD
_database_code_ICSD 92199
_audit_creation_date 2002-10-01
_audit_update_record 2011-02-01
_chemical_name_common 'Iron(III) phosphate(V)'
_chemical_formula_structural 'Fe (P O4)'
_chemical_formula_sum 'Fe1 O4 P1'
_chemical_name_structure_type FePO4
_exptl_crystal_density_diffrn 3.69
_citation_title

;
Lithium extraction/insertion in Li Fe P O4: an X-ray diffraction and Mossbauer
spectroscopy study
;
loop_
_citation_id
_citation_journal_full
_citation_year
_citation_journal_volume
_citation_page_first
_citation_page_last
_citation_journal_id_ASTM
primary 'Solid State Ionics' 2000 130 41 52 SSIOD3
loop_
_citation_author_citation_id
_citation_author_name
primary 'Andersson, A.S.'
primary 'Kalska, B.'
primary 'Haeggstroem, L.'
primary 'Thomas, J.O.'
primary 'Huang Yunhui'
primary 'Shan Bin'
primary 'Chen Rong'
_cell_length_a 9.8142(2)
_cell_length_b 5.7893(2)
_cell_length_c 4.7820(2)
_cell_angle_alpha 90.
_cell_angle_beta 90.
_cell_angle_gamma 90.
_cell_volume 271.7
_cell_formula_units_Z 4
_space_group_name_H-M_alt 'P n m a'
_space_group_IT_number 62
loop_
_space_group_symop_id
_space_group_symop_operation_xyz
1 'x+1/2, y, -z+1/2'
2 'x, -y+1/2, z'
3 '-x+1/2, y+1/2, z+1/2'
4 '-x, -y, -z'
5 '-x+1/2, -y, z+1/2'
6 '-x, y+1/2, -z'
7 'x+1/2, -y+1/2, -z+1/2'
8 'x, y, z'
loop_
_atom_type_symbol
_atom_type_oxidation_number
Fe3+ 3
P5+ 5
O2- -2
loop_
_atom_site_label
_atom_site_type_symbol
_atom_site_symmetry_multiplicity
_atom_site_Wyckoff_symbol
_atom_site_fract_x
_atom_site_fract_y
_atom_site_fract_z
_atom_site_B_iso_or_equiv
_atom_site_occupancy
Fe1 Fe3+ 4 c 0.2753(3) 0.25 0.9504(6) 1.3(2) 1.
P1 P5+ 4 c 0.0930(5) 0.25 0.3989(12) 1.6(2) 1.
O1 O2- 4 c 0.1153(9) 0.25 0.7107(20) 1.6(4) 1.
O2 O2- 4 c 0.4450(12) 0.25 0.1511(16) 0.2(3) 1.
O3 O2- 8 d 0.1649(7) 0.0465(11) 0.2520(11) 0.4(2) 1.
#End of TTdata_92199-ICSD
#
