(C) 2022 by FIZ Karlsruhe - Leibniz Institute for Information Infrastructure.  All rights reserved.
data_154115-ICSD
_database_code_ICSD 154115
_audit_creation_date 2007-04-01
_audit_update_record 2012-02-01
_chemical_name_common 'Lithium iron phosphate(V) (0.64/1/1)'
_chemical_formula_structural 'Li0.64 Fe (P O4)'
_chemical_formula_sum 'Fe1 Li0.64 O4 P1'
_chemical_name_structure_type Olivine#Mg2SiO4
_exptl_crystal_density_diffrn 3.51
_diffrn_ambient_temperature 643.
_citation_title

;
Crystal chemistry of the olivine-type Lix Fe P O4 system (0 <= x <= 1) between
5 and 370 C
;
loop_
_citation_id
_citation_journal_full
_citation_year
_citation_journal_volume
_citation_page_first
_citation_page_last
_citation_journal_id_ASTM
primary 'Solid State Sciences' 2005 7 1506 1516 SSSCFJ
loop_
_citation_author_citation_id
_citation_author_name
primary 'Delacourt, C.'
primary 'Rodriguez Carvajal, J.'
primary 'Schmitt, B.'
primary 'Tarascon, J.-M.'
primary 'Masquelier, C.'
_cell_length_a 6.004(1)
_cell_length_b 10.268(3)
_cell_length_c 4.760(1)
_cell_angle_alpha 90.
_cell_angle_beta 90.
_cell_angle_gamma 90.
_cell_volume 293.45
_cell_formula_units_Z 4
_space_group_name_H-M_alt 'P m n b'
_space_group_IT_number 62
loop_
_space_group_symop_id
_space_group_symop_operation_xyz
1 'x, y+1/2, -z+1/2'
2 '-x+1/2, y, z'
3 'x+1/2, -y+1/2, z+1/2'
4 '-x, -y, -z'
5 '-x, -y+1/2, z+1/2'
6 'x+1/2, -y, -z'
7 '-x+1/2, y+1/2, -z+1/2'
8 'x, y, z'
loop_
_atom_type_symbol
_atom_type_oxidation_number
Li1+ 1
Fe2+ 2.36
P5+ 5
O2- -2
loop_
_atom_site_label
_atom_site_type_symbol
_atom_site_symmetry_multiplicity
_atom_site_Wyckoff_symbol
_atom_site_fract_x
_atom_site_fract_y
_atom_site_fract_z
_atom_site_B_iso_or_equiv
_atom_site_occupancy
Li1 Li1+ 4 a 0 0 0 1.3(1) 0.64(6)
Fe1 Fe2+ 4 c 0.25 0.2808(4) 0.9717(9) 1.4(1) 1.
P1 P5+ 4 c 0.25 0.0967(7) 0.4211(3) 0.8(1) 1.
O1 O2- 4 c 0.25 0.1049(8) 0.7412(15) 1.9(1) 1.
O2 O2- 4 c 0.25 0.4585(7) 0.1887(14) 1.9(2) 1.
O3 O2- 8 d 0.0493(8) 0.1674(6) 0.2799(11) 1.8(1) 1.
#End of TTdata_154115-ICSD
#
