(C) 2022 by FIZ Karlsruhe - Leibniz Institute for Information Infrastructure.  All rights reserved.
data_174531-ICSD
_database_code_ICSD 174531
_audit_creation_date 2011-02-01
_audit_update_record 2013-02-01
_chemical_name_common 'Lithium iron diphosphate(V) (1.73/1/1)'
_chemical_formula_structural 'Li1.73 Fe P2 O7'
_chemical_formula_sum 'Fe1 Li1.73 O7 P2'
_chemical_name_structure_type Li2MnP2O7
_exptl_crystal_density_diffrn 3.11
_citation_title

;
New lithium iron pyrophosphate as 3.5 V class cathode material for lithium ion
battery
;
loop_
_citation_id
_citation_journal_full
_citation_year
_citation_journal_volume
_citation_page_first
_citation_page_last
_citation_journal_id_ASTM
primary 'Journal of the American Chemical Society' 2010 132 13596 13597 JACSAT
loop_
_citation_author_citation_id
_citation_author_name
primary 'Nishimura, S.T.'
primary 'Nakamura, M.'
primary 'Natsui, R.'
primary 'Yamada, A.'
_cell_length_a 11.01847(4)
_cell_length_b 9.75536(3)
_cell_length_c 9.80517(3)
_cell_angle_alpha 90.
_cell_angle_beta 101.5416(2)
_cell_angle_gamma 90.
_cell_volume 1032.64
_cell_formula_units_Z 8
_space_group_name_H-M_alt 'P 1 21/c 1'
_space_group_IT_number 14
loop_
_space_group_symop_id
_space_group_symop_operation_xyz
1 'x, -y+1/2, z+1/2'
2 '-x, -y, -z'
3 '-x, y+1/2, -z+1/2'
4 'x, y, z'
loop_
_atom_type_symbol
_atom_type_oxidation_number
Fe2+ 2.27
P5+ 5
O2- -2
Li1+ 1
loop_
_atom_site_label
_atom_site_type_symbol
_atom_site_symmetry_multiplicity
_atom_site_Wyckoff_symbol
_atom_site_fract_x
_atom_site_fract_y
_atom_site_fract_z
_atom_site_B_iso_or_equiv
_atom_site_occupancy
Fe1 Fe2+ 4 e 0.67193(6) 0.57177(7) 0.69786(7) .969(19) 1.
Fe2 Fe2+ 4 e 0.82066(9) 0.28584(10) 0.75186(11) .969(19) 0.6768(11)
Fe3 Fe2+ 4 e 0.03909(15) 0.07607(17) 0.65554(19) .969(19) 0.3232(11)
P1 P5+ 4 e 0.57585(13) 0.65090(13) 0.37666(14) .871(17) 1.
P2 P5+ 4 e 0.24167(11) 0.57047(14) 0.56139(13) .871(17) 1.
P3 P5+ 4 e 0.89075(12) 0.79754(15) 0.61825(14) .871(17) 1.
P4 P5+ 4 e 0.75825(11) 0.04405(13) 0.52143(13) .871(17) 1.
O1 O2- 4 e 0.8548(3) 0.1362(3) 0.6131(3) .773(2) 1.
O2 O2- 4 e 0.7887(2) 0.0306(3) 0.3787(3) .773(2) 1.
O3 O2- 4 e 0.3759(2) 0.5819(3) 0.9815(3) .773(2) 1.
O4 O2- 4 e 0.1064(2) 0.5651(3) 0.5651(3) .773(2) 1.
O5 O2- 4 e 0.6890(2) 0.3235(3) 0.3352(3) .773(2) 1.
O6 O2- 4 e 0.7310(2) 0.4101(3) 0.5828(3) .773(2) 1.
O7 O2- 4 e 0.0770(3) 0.2786(3) 0.0218(3) .773(2) 1.
O8 O2- 4 e 0.4166(2) 0.2913(3) 0.1868(3) .773(2) 1.
O9 O2- 4 e 0.8467(3) 0.6696(3) 0.6829(3) .773(2) 1.
O10 O2- 4 e -0.0060(2) 0.8716(2) 0.7202(3) .773(2) 1.
O11 O2- 4 e 0.4832(2) 0.9368(3) 0.7771(3) .773(2) 1.
O12 O2- 4 e 0.5548(3) 0.6604(3) 0.5233(3) .773(2) 1.
O13 O2- 4 e 0.2917(3) 0.0780(3) 0.1156(3) .773(2) 1.
O14 O2- 4 e 0.2291(2) 0.1053(3) 0.4052(3) .773(2) 1.
Li1 Li1+ 4 e 0.4445(7) 0.7252(8) 0.1120(8) 1. 1.
Li2 Li1+ 4 e 0.9744(7) 0.6109(3) 0.4136(9) 1. 1.
Li3 Li1+ 4 e 0.4629(9) 0.5729(10) 0.8433(10) 4.2(2) 1.
Li4 Li1+ 4 e 0.03909(15) 0.07607(17) 0.65554(19) 1. 0.457(18)
#End of TTdata_174531-ICSD
#
