(C) 2022 by FIZ Karlsruhe - Leibniz Institute for Information Infrastructure.  All rights reserved.
data_236463-ICSD
_database_code_ICSD 236463
_audit_creation_date 2014-02-01
_chemical_name_common 'Lithium iron phosphate (0.2/1.4/1)'
_chemical_formula_structural 'Li0.16 Fe1.42 (P O4)'
_chemical_formula_sum 'Fe1.42 Li0.16 O4 P1'
_chemical_name_structure_type Olivine(related,MO)#Mg3(PO4)2#β−Mn3(PO4)2
_exptl_crystal_density_diffrn 3.88
_citation_title

;
On Aliovalent Substitution on the Li Site in Li M P O 4 : an X-ray Diffraction
Study of the Systems Li M P O 4 - M1.5  P O 4  (=  Lix M1.5 - x/2 P O4; M =
Ni, Co, Fe, Mn)
;
loop_
_citation_id
_citation_journal_full
_citation_year
_citation_journal_volume
_citation_page_first
_citation_page_last
_citation_journal_id_ASTM
primary 'Zeitschrift fuer Anorganische und Allgemeine Chemie (1950) (DE)' 2014
640 173 183 ZAACAB
loop_
_citation_author_citation_id
_citation_author_name
primary 'Clemens, Oliver'
primary 'Haberkorn, Robert'
primary 'Springborg, Michael'
primary 'Beck, Horst Philipp'
_cell_length_a 10.433(1)
_cell_length_b 6.0276(6)
_cell_length_c 4.7751(6)
_cell_angle_alpha 90
_cell_angle_beta 90
_cell_angle_gamma 90.867(6)
_cell_volume 300.25
_cell_formula_units_Z 4
_space_group_name_H-M_alt 'P 1 1 21/a'
_space_group_IT_number 14
loop_
_space_group_symop_id
_space_group_symop_operation_xyz
1 'x+1/2, y, -z+1/2'
2 '-x, -y, -z'
3 '-x+1/2, -y, z+1/2'
4 'x, y, z'
loop_
_atom_type_symbol
_atom_type_oxidation_number
Fe2+ 2
Li1+ 1
Fe2+ 2
P5+ 5
O2- -2
loop_
_atom_site_label
_atom_site_type_symbol
_atom_site_symmetry_multiplicity
_atom_site_Wyckoff_symbol
_atom_site_fract_x
_atom_site_fract_y
_atom_site_fract_z
_atom_site_B_iso_or_equiv
_atom_site_occupancy
Fe1 Fe2+ 2 a 0 0 0 0.40(7) 0.841
Li1 Li1+ 2 a 0 0 0 0.40(7) 0.16
Li2 Li1+ 2 b 0 0.5 0 0.40(7) 0.16
Fe2 Fe2+ 4 e 0.2168(2) 0.2619(4) 0.5167(6) 0.40(7) 1.
P1 P5+ 4 e 0.3975(4) 0.2393(7) 0.0623(8) 0.40(7) 1.
O1 O2- 4 e 0.393(1) 0.227(2) 0.735(1) 0.40(7) 1.
O2 O2- 4 e 0.037(1) 0.245(2) 0.307(1) 0.40(7) 1.
O3 O2- 4 e 0.326(1) 0.429(2) 0.180(2) 0.40(7) 1.
O4 O2- 4 e 0.337(1) 0.034(2) 0.230(2) 0.40(7) 1.
#End of TTdata_236463-ICSD
#
