(C) 2022 by FIZ Karlsruhe - Leibniz Institute for Information Infrastructure.  All rights reserved.
data_193798-ICSD
_database_code_ICSD 193798
_audit_creation_date 2015-08-01
_chemical_name_common 'Lithium phosphate'
_chemical_formula_structural 'Li Fe (P O4)'
_chemical_formula_sum 'Fe1 Li1 O4 P1'
_chemical_name_structure_type Olivine#Mg2SiO4
_exptl_crystal_density_diffrn 3.6
_diffrn_ambient_temperature 293.
_citation_title

;
Reciprocal salt flux growth of Li Fe P O4 single crystals with controlled
defect concentrations
;
loop_
_citation_id
_citation_journal_full
_citation_year
_citation_journal_volume
_citation_page_first
_citation_page_last
_citation_journal_id_ASTM
primary 'Chemistry of Materials' 2013 25 4574 4584 CMATEX
loop_
_citation_author_citation_id
_citation_author_name
primary 'Janssen, Yuri'
primary 'Santhanagopalan, Dhamodaran'
primary 'Qian, Danna'
primary 'Chi, Miaofang'
primary 'Wang, Xiaoping'
primary 'Hoffmann, Christina'
primary 'Meng, Ying Shirley'
primary 'Khalifah, Peter G.'
_cell_length_a 10.3360(2)
_cell_length_b 6.0060(3)
_cell_length_c 4.6932(5)
_cell_angle_alpha 90
_cell_angle_beta 90
_cell_angle_gamma 90
_cell_volume 291.34
_cell_formula_units_Z 4
_space_group_name_H-M_alt 'P n m a'
_space_group_IT_number 62
loop_
_space_group_symop_id
_space_group_symop_operation_xyz
1 'x+1/2, y, -z+1/2'
2 'x, -y+1/2, z'
3 '-x+1/2, y+1/2, z+1/2'
4 '-x, -y, -z'
5 '-x+1/2, -y, z+1/2'
6 '-x, y+1/2, -z'
7 'x+1/2, -y+1/2, -z+1/2'
8 'x, y, z'
loop_
_atom_type_symbol
_atom_type_oxidation_number
Fe2+ 2
P5+ 5
O2- -2
Li1+ 1
loop_
_atom_site_label
_atom_site_type_symbol
_atom_site_symmetry_multiplicity
_atom_site_Wyckoff_symbol
_atom_site_fract_x
_atom_site_fract_y
_atom_site_fract_z
_atom_site_U_iso_or_equiv
_atom_site_occupancy
Fe1 Fe2+ 4 c 0.282225(16) 0.25 0.97485(4) 0.00740(6) 1.000(2)
P1 P5+ 4 c 0.09496(3) 0.25 0.41828(7) 0.00605(9) 1
O1 O2- 4 c 0.09707(9) 0.25 0.7431(2) 0.0100(2) 1.018(5)
O2 O2- 4 c 0.45728(8) 0.25 0.2054(2) 0.0099(2) 1.034(5)
O3 O2- 8 d 0.16568(6) 0.04672(11) 0.28517(15) 0.01036(17) 1.037(5)
Li1 Li1+ 4 a 0 0 0 0.0148(7) 1.10(2)
loop_
_atom_site_aniso_label
_atom_site_aniso_type_symbol
_atom_site_aniso_U_11
_atom_site_aniso_U_22
_atom_site_aniso_U_33
_atom_site_aniso_U_12
_atom_site_aniso_U_13
_atom_site_aniso_U_23
Fe1 Fe2+ 0.00777(10) 0.00629(10) 0.00815(11) 0 0.00047(5) 0
P1 P5+ 0.00712(14) 0.00611(15) 0.00491(16) 0 0.00021(9) 0
O1 O2- 0.0125(4) 0.0121(4) 0.0053(4) 0 -0.0003(3) 0
O2 O2- 0.0081(4) 0.0122(4) 0.0093(4) 0 0.0003(3) 0
O3 O2- 0.0131(3) 0.0085(3) 0.0095(3) 0.00245(19) 0.00127(19) 0.0000(2)
Li1 Li1+ 0.0175(12) 0.0150(13) 0.0117(13) -0.0029(9) -0.0021(7) -0.0041(8)
#End of TTdata_193798-ICSD
#
