(C) 2022 by FIZ Karlsruhe - Leibniz Institute for Information Infrastructure.  All rights reserved.
data_185308-ICSD
_database_code_ICSD 185308
_audit_creation_date 2013-02-01
_chemical_name_common 'Lithium iron phosphate(V)'
_chemical_formula_structural 'Li Fe (P O4)'
_chemical_formula_sum 'Fe1 Li1 O4 P1'
_chemical_name_structure_type Olivine#Mg2SiO4
_exptl_crystal_density_diffrn 3.62
_citation_title

;
Synthesis and electrochemical properties of Li Fe P O4 single-crystalline
nanoplates dominated with bc-planes
;
_publ_section_comment 'Cell and Type only determined'
loop_
_citation_id
_citation_journal_full
_citation_year
_citation_journal_volume
_citation_page_first
_citation_page_last
_citation_journal_id_ASTM
primary 'Materials Letters' 2012 74 22 25 MLETDJ
loop_
_citation_author_citation_id
_citation_author_name
primary 'Ju Shuyuan'
primary 'Peng Hongrui'
primary 'Li Guicun'
primary 'Chen Kezheng'
_cell_length_a 10.294
_cell_length_b 5.987
_cell_length_c 4.696
_cell_angle_alpha 90.
_cell_angle_beta 90.
_cell_angle_gamma 90.
_cell_volume 289.42
_cell_formula_units_Z 4
_space_group_name_H-M_alt 'P n m a'
_space_group_IT_number 62
loop_
_space_group_symop_id
_space_group_symop_operation_xyz
1 'x+1/2, y, -z+1/2'
2 'x, -y+1/2, z'
3 '-x+1/2, y+1/2, z+1/2'
4 '-x, -y, -z'
5 '-x+1/2, -y, z+1/2'
6 '-x, y+1/2, -z'
7 'x+1/2, -y+1/2, -z+1/2'
8 'x, y, z'
loop_
_atom_type_symbol
_atom_type_oxidation_number
Li1+ 1
Fe2+ 2
P5+ 5
O2- -2
loop_
_atom_site_label
_atom_site_type_symbol
_atom_site_symmetry_multiplicity
_atom_site_Wyckoff_symbol
_atom_site_fract_x
_atom_site_fract_y
_atom_site_fract_z
_atom_site_B_iso_or_equiv
_atom_site_occupancy
Li1 Li1+ 4 a 0 0 0 . 1.
Fe1 Fe2+ 4 c 0.282 0.25 0.974 . 1.
P1 P5+ 4 c 0.094 0.25 0.417 . 1.
O1 O2- 4 c 0.098 0.25 0.744 . 1.
O2 O2- 4 c 0.457 0.25 0.206 . 1.
O3 O2- 8 d 0.166 0.047 0.285 . 1.
#End of TTdata_185308-ICSD
#
