(C) 2022 by FIZ Karlsruhe - Leibniz Institute for Information Infrastructure.  All rights reserved.
data_159317-ICSD
_database_code_ICSD 159317
_audit_creation_date 2008-08-01
_chemical_name_common 'Lithium iron phosphate(V) (0.94/1.03/1)'
_chemical_formula_structural '(Li0.938 Fe0.031) Fe (P O4)'
_chemical_formula_sum 'Fe1.031 Li0.938 O4 P1'
_chemical_name_structure_type Olivine#Mg2SiO4
_exptl_crystal_density_diffrn 3.62
_diffrn_ambient_temperature 223.
_citation_title

;
The hydrothermal synthesis and characterization of olivines and related
compounds for electrochemical applications
;
loop_
_citation_id
_citation_journal_full
_citation_year
_citation_journal_volume
_citation_page_first
_citation_page_last
_citation_journal_id_ASTM
primary 'Solid State Ionics' 2008 178 1676 1693 SSIOD3
loop_
_citation_author_citation_id
_citation_author_name
primary 'Chen Jiajun'
primary 'Vacchio, M.J.'
primary 'Wang Shijun'
primary 'Chernova, N.'
primary 'Zavalij, P.Y.'
primary 'Whittingham, M.S.'
_cell_length_a 10.34447(9)
_cell_length_b 6.0033(5)
_cell_length_c 4.6964(4)
_cell_angle_alpha 90.
_cell_angle_beta 90.
_cell_angle_gamma 90.
_cell_volume 291.65
_cell_formula_units_Z 4
_space_group_name_H-M_alt 'P n m a'
_space_group_IT_number 62
loop_
_space_group_symop_id
_space_group_symop_operation_xyz
1 'x+1/2, y, -z+1/2'
2 'x, -y+1/2, z'
3 '-x+1/2, y+1/2, z+1/2'
4 '-x, -y, -z'
5 '-x+1/2, -y, z+1/2'
6 '-x, y+1/2, -z'
7 'x+1/2, -y+1/2, -z+1/2'
8 'x, y, z'
loop_
_atom_type_symbol
_atom_type_oxidation_number
Li1+ 1
Fe2+ 2
P5+ 5
O2- -2
loop_
_atom_site_label
_atom_site_type_symbol
_atom_site_symmetry_multiplicity
_atom_site_Wyckoff_symbol
_atom_site_fract_x
_atom_site_fract_y
_atom_site_fract_z
_atom_site_U_iso_or_equiv
_atom_site_occupancy
Li1 Li1+ 4 a 0 0 0 0.0166(9) 0.938(4)
Fe1 Fe2+ 4 a 0 0 0 0.0166(9) 0.031(2)
Fe2 Fe2+ 4 c 0.28174(3) 0.25 0.02530(7) 0.00936(6) 1.
P1 P5+ 4 c 0.09473(5) 0.25 0.58321(12) 0.00823(9) 1.
O1 O2- 4 c -0.04347(16) 0.25 0.7060(4) 0.0110(3) 1.
O2 O2- 4 c 0.09751(16) 0.25 0.2593(4) 0.0103(2) 1.
O3 O2- 8 d 0.16524(11) 0.04607(19) 0.7167(2) 0.01049(17) 1.
loop_
_atom_site_aniso_label
_atom_site_aniso_type_symbol
_atom_site_aniso_U_11
_atom_site_aniso_U_22
_atom_site_aniso_U_33
_atom_site_aniso_U_12
_atom_site_aniso_U_13
_atom_site_aniso_U_23
Li1 Li1+ 0.0182(16) 0.0184(16) 0.0131(16) -0.0025(12) 0.0015(11) -0.0002(12)
Fe1 Fe2+ 0.0182(16) 0.0184(16) 0.0131(16) -0.0025(12) 0.0015(11) -0.0002(12)
Fe2 Fe2+ 0.00844(11) 0.00814(10) 0.01150(13) 0. -0.00040(19) 0.
P1 P5+ 0.00768(19) 0.00831(19) 0.0087(2) 0. -0.00012(15) 0.
O1 O2- 0.0088(6) 0.0126(6) 0.0115(7) 0. -0.0002(5) 0.
O2 O2- 0.0111(6) 0.0112(6) 0.0087(6) 0. 0.0001(5) 0.
O3 O2- 0.0115(4) 0.0099(4) 0.0102(4) 0.0022(3) -0.0011(3) -0.0005(3)
#End of TTdata_159317-ICSD
#
