(C) 2022 by FIZ Karlsruhe - Leibniz Institute for Information Infrastructure.  All rights reserved.
data_168669-ICSD
_database_code_ICSD 168669
_audit_creation_date 2011-02-01
_chemical_name_common

;
Lithium aluminium titanium iron aluminium phosphate
(0.953/0.002/0.010/0.979/0.014/1)
;
_chemical_formula_structural
'(Li0.954 Al0.002 Ti0.010) (Fe0.979 Al0.014) (P O4)'
_chemical_formula_sum 'Al0.016 Fe0.979 Li0.954 O4 P1 Ti0.01'
_chemical_name_structure_type Olivine#Mg2SiO4
_exptl_crystal_density_diffrn 3.58
_citation_title

;
A novel process for producing synthetic rutile and Li Fe P O4 cathode material
from ilmenite
;
loop_
_citation_id
_citation_journal_full
_citation_year
_citation_journal_volume
_citation_page_first
_citation_page_last
_citation_journal_id_ASTM
primary 'Journal of Alloys and Compounds' 2010 506 271 278 JALCEU
loop_
_citation_author_citation_id
_citation_author_name
primary 'Wu Ling'
primary 'Li Xin Hai'
primary 'Wang Zhi Xing'
primary 'Guo Hua Jun'
primary 'Wang Xiao Juan'
primary 'Wu Fei Xiang'
primary 'Fang Jie'
primary 'Wang Zhi Guo'
primary 'Li Ling Jun'
_cell_length_a 10.3262(8)
_cell_length_b 6.0087(6)
_cell_length_c 4.6998(9)
_cell_angle_alpha 90.
_cell_angle_beta 90.
_cell_angle_gamma 90.
_cell_volume 291.61
_cell_formula_units_Z 4
_space_group_name_H-M_alt 'P n m a'
_space_group_IT_number 62
loop_
_space_group_symop_id
_space_group_symop_operation_xyz
1 'x+1/2, y, -z+1/2'
2 'x, -y+1/2, z'
3 '-x+1/2, y+1/2, z+1/2'
4 '-x, -y, -z'
5 '-x+1/2, -y, z+1/2'
6 '-x, y+1/2, -z'
7 'x+1/2, -y+1/2, -z+1/2'
8 'x, y, z'
loop_
_atom_type_symbol
_atom_type_oxidation_number
Li1+ 1
Al3+ 3
Ti4+ 4
Fe2+ 2
Al3+ 3
P5+ 5
O2- -2
loop_
_atom_site_label
_atom_site_type_symbol
_atom_site_symmetry_multiplicity
_atom_site_Wyckoff_symbol
_atom_site_fract_x
_atom_site_fract_y
_atom_site_fract_z
_atom_site_B_iso_or_equiv
_atom_site_occupancy
Li1 Li1+ 4 a 0 0 0 . 0.9536(7)
Al1 Al3+ 4 a 0 0 0 . 0.0020(9)
Ti1 Ti4+ 4 a 0 0 0 . 0.0101(10)
Fe1 Fe2+ 4 c 0.2824(8) 0.25 0.9740(9) . 0.9787(9)
Al2 Al3+ 4 c 0.2824(8) 0.25 0.9740(9) . 0.0142(11)
P1 P5+ 4 c 0.0952(6) 0.25 0.4183(5) . 1.
O1 O2- 4 c 0.0964(10) 0.25 0.7420(6) . 1.
O2 O2- 4 c 0.4560(7) 0.25 0.2055(9) . 1.
O3 O2- 8 d 0.1647(9) 0.0482(9) 0.2836(8) . 1.
#End of TTdata_168669-ICSD
#
