(C) 2022 by FIZ Karlsruhe - Leibniz Institute for Information Infrastructure.  All rights reserved.
data_181272-ICSD
_database_code_ICSD 181272
_audit_creation_date 2012-02-01
_chemical_name_common 'Lithium iron phosphate - nanocrystalline, plate-type'
_chemical_formula_structural 'Li Fe (P O4)'
_chemical_formula_sum 'Fe1 Li1 O4 P1'
_chemical_name_structure_type Olivine#Mg2SiO4
_exptl_crystal_density_diffrn 3.62
_citation_title

;
Plate-type Li Fe P O4 nanocrystals by low temperature polyol-assisted
solvothermal reaction and its electrochemical properties
;
loop_
_citation_id
_citation_journal_full
_citation_year
_citation_journal_volume
_citation_page_first
_citation_page_last
_citation_journal_id_ASTM
primary 'Journal of Alloys and Compounds' 2011 509 8130 8135 JALCEU
loop_
_citation_author_citation_id
_citation_author_name
primary 'Lim Jinsub'
primary 'Kim Donghan'
primary 'Mathew, V.'
primary 'Ahn Docheon'
primary 'Kang Jungwon'
primary 'Kang Sung-Won'
primary 'Kim Jaekook'
_cell_length_a 10.3040(1)
_cell_length_b 5.98299(8)
_cell_length_c 4.69508(5)
_cell_angle_alpha 90.
_cell_angle_beta 90.
_cell_angle_gamma 90.
_cell_volume 289.45
_cell_formula_units_Z 4
_space_group_name_H-M_alt 'P n m a'
_space_group_IT_number 62
loop_
_space_group_symop_id
_space_group_symop_operation_xyz
1 'x+1/2, y, -z+1/2'
2 'x, -y+1/2, z'
3 '-x+1/2, y+1/2, z+1/2'
4 '-x, -y, -z'
5 '-x+1/2, -y, z+1/2'
6 '-x, y+1/2, -z'
7 'x+1/2, -y+1/2, -z+1/2'
8 'x, y, z'
loop_
_atom_type_symbol
_atom_type_oxidation_number
Li1+ 1
Fe2+ 2
P5+ 5
O2- -2
loop_
_atom_site_label
_atom_site_type_symbol
_atom_site_symmetry_multiplicity
_atom_site_Wyckoff_symbol
_atom_site_fract_x
_atom_site_fract_y
_atom_site_fract_z
_atom_site_B_iso_or_equiv
_atom_site_occupancy
Li1 Li1+ 4 a 0 0 0 1. 1.
Fe1 Fe2+ 4 c 0.2816(2) 0.25 0.9758(6) 0.56(4) 1.
P1 P5+ 4 c 0.0965(3) 0.25 0.4211(7) 0.47(9) 1.
O1 O2- 4 c 0.0968(9) 0.25 0.739(1) 0.69(5) 1.
O2 O2- 4 c 0.456(1) 0.25 0.209(1) 0.69(5) 1.
O3 O2- 8 d 0.1691(7) 0.046(1) 0.2805(7) 0.69(5) 1.
#End of TTdata_181272-ICSD
#
