(C) 2022 by FIZ Karlsruhe - Leibniz Institute for Information Infrastructure.  All rights reserved.
data_155581-ICSD
_database_code_ICSD 155581
_audit_creation_date 2007-08-01
_chemical_name_common 'Lithium iron cobalt phosphate(V) (1/0.76/0.24/1)'
_chemical_formula_structural 'Li (Fe0.76 Co0.24) (P O4)'
_chemical_formula_sum 'Co0.24 Fe0.76 Li1 O4 P1'
_chemical_name_structure_type Olivine#Mg2SiO4
_exptl_crystal_density_diffrn 3.65
_diffrn_ambient_temperature 298.
_citation_title

;
A neutron powder diffraction study of Li Cox Fe1-x P O4 for x = 0., 0.25, 0.40
and 0.75
;
loop_
_citation_id
_citation_journal_full
_citation_year
_citation_journal_volume
_citation_page_first
_citation_page_last
_citation_journal_id_ASTM
primary 'Solid State Ionics' 2006 177 1327 1330 SSIOD3
loop_
_citation_author_citation_id
_citation_author_name
primary 'Nyten, A.'
primary 'Thomas, J.O.'
_cell_length_a 10.275(1)
_cell_length_b 5.980(1)
_cell_length_c 4.6917(5)
_cell_angle_alpha 90.
_cell_angle_beta 90.
_cell_angle_gamma 90.
_cell_volume 288.28
_cell_formula_units_Z 4
_space_group_name_H-M_alt 'P n m a'
_space_group_IT_number 62
loop_
_space_group_symop_id
_space_group_symop_operation_xyz
1 'x+1/2, y, -z+1/2'
2 'x, -y+1/2, z'
3 '-x+1/2, y+1/2, z+1/2'
4 '-x, -y, -z'
5 '-x+1/2, -y, z+1/2'
6 '-x, y+1/2, -z'
7 'x+1/2, -y+1/2, -z+1/2'
8 'x, y, z'
loop_
_atom_type_symbol
_atom_type_oxidation_number
Li1+ 1
Fe2+ 2
Co2+ 2
P5+ 5
O2- -2
loop_
_atom_site_label
_atom_site_type_symbol
_atom_site_symmetry_multiplicity
_atom_site_Wyckoff_symbol
_atom_site_fract_x
_atom_site_fract_y
_atom_site_fract_z
_atom_site_B_iso_or_equiv
_atom_site_occupancy
Li1 Li1+ 4 a 0 0 0 0.6(6) 1.
Fe1 Fe2+ 4 c 0.280(1) 0.25 0.982(2) 1.44(2) 0.76(1)
Co1 Co2+ 4 c 0.280(1) 0.25 0.982(2) 1.44(2) 0.24(1)
P1 P5+ 4 c 0.095(1) 0.25 0.412(2) 0.6(2) 1.
O1 O2- 4 c 0.101(1) 0.25 0.752(3) 1.3(2) 1.
O2 O2- 4 c 0.456(1) 0.25 0.201(2) 0.6(2) 1.
O3 O2- 8 d 0.167(1) 0.044(1) 0.280(2) 1.5(2) 1.
#End of TTdata_155581-ICSD
#
