(C) 2022 by FIZ Karlsruhe - Leibniz Institute for Information Infrastructure.  All rights reserved.
data_193796-ICSD
_database_code_ICSD 193796
_audit_creation_date 2015-08-01
_chemical_name_common 'Lithium iron phosphate'
_chemical_formula_structural 'Li Fe (P O4)'
_chemical_formula_sum 'Fe1 Li1 O4 P1'
_chemical_name_structure_type Olivine#Mg2SiO4
_exptl_crystal_density_diffrn 3.6
_diffrn_ambient_temperature 293.
_citation_title

;
Reciprocal salt flux growth of Li Fe P O4 single crystals with controlled
defect concentrations
;
loop_
_citation_id
_citation_journal_full
_citation_year
_citation_journal_volume
_citation_page_first
_citation_page_last
_citation_journal_id_ASTM
primary 'Chemistry of Materials' 2013 25 4574 4584 CMATEX
loop_
_citation_author_citation_id
_citation_author_name
primary 'Janssen, Yuri'
primary 'Santhanagopalan, Dhamodaran'
primary 'Qian, Danna'
primary 'Chi, Miaofang'
primary 'Wang, Xiaoping'
primary 'Hoffmann, Christina'
primary 'Meng, Ying Shirley'
primary 'Khalifah, Peter G.'
_cell_length_a 10.3244(2)
_cell_length_b 6.0064(3)
_cell_length_c 4.6901(5)
_cell_angle_alpha 90
_cell_angle_beta 90
_cell_angle_gamma 90
_cell_volume 290.84
_cell_formula_units_Z 4
_space_group_name_H-M_alt 'P n m a'
_space_group_IT_number 62
loop_
_space_group_symop_id
_space_group_symop_operation_xyz
1 'x+1/2, y, -z+1/2'
2 'x, -y+1/2, z'
3 '-x+1/2, y+1/2, z+1/2'
4 '-x, -y, -z'
5 '-x+1/2, -y, z+1/2'
6 '-x, y+1/2, -z'
7 'x+1/2, -y+1/2, -z+1/2'
8 'x, y, z'
loop_
_atom_type_symbol
_atom_type_oxidation_number
Fe2+ 2
P5+ 5
O2- -2
Li1+ 1
loop_
_atom_site_label
_atom_site_type_symbol
_atom_site_symmetry_multiplicity
_atom_site_Wyckoff_symbol
_atom_site_fract_x
_atom_site_fract_y
_atom_site_fract_z
_atom_site_U_iso_or_equiv
_atom_site_occupancy
Fe1 Fe2+ 4 c 0.282201(11) 0.25 0.97474(3) 0.00667(3) 1.0040(16)
P1 P5+ 4 c 0.094860(19) 0.25 0.41822(4) 0.00522(5) 1
O1 O2- 4 c 0.09695(6) 0.25 0.74277(12) 0.00891(13) 1.025(3)
O2 O2- 4 c 0.45715(6) 0.25 0.20605(13) 0.00879(13) 1.030(3)
O3 O2- 8 d 0.16556(4) 0.04652(7) 0.28486(9) 0.00912(9) 1.035(3)
Li1 Li1+ 4 a 0 0 0 0.0166(6) 1.000(15)
loop_
_atom_site_aniso_label
_atom_site_aniso_type_symbol
_atom_site_aniso_U_11
_atom_site_aniso_U_22
_atom_site_aniso_U_33
_atom_site_aniso_U_12
_atom_site_aniso_U_13
_atom_site_aniso_U_23
Fe1 Fe2+ 0.00642(5) 0.00595(5) 0.00765(5) 0 0.00037(3) 0
P1 P5+ 0.00551(8) 0.00552(8) 0.00462(8) 0 0.00018(5) 0
O1 O2- 0.0105(3) 0.0109(2) 0.00533(19) 0 -0.00012(15) 0
O2 O2- 0.0065(2) 0.0112(2) 0.0087(2) 0 0.00036(15) 0
O3 O2- 0.01126(18) 0.00747(15) 0.00862(15) 0.00237(11) 0.00146(11) 0.00023(11)
Li1 Li1+ 0.0200(11) 0.0154(10) 0.0142(9) -0.0029(7) -0.0022(6) -0.0037(6)
#End of TTdata_193796-ICSD
#
