(C) 2022 by FIZ Karlsruhe - Leibniz Institute for Information Infrastructure.  All rights reserved.
data_290339-ICSD
_database_code_ICSD 290339
_audit_creation_date 2014-02-01
_chemical_name_common 'Lithium iron phosphate(V)'
_chemical_formula_structural 'Li Fe (P O4)'
_chemical_formula_sum 'Fe1 Li1 O4 P1'
_chemical_name_structure_type Olivine#Mg2SiO4
_exptl_crystal_density_diffrn 3.59
_citation_title

;
Design of a new lithium ion battery test cell for in-situ neutron diffraction
measurements
;
loop_
_citation_id
_citation_journal_full
_citation_year
_citation_journal_volume
_citation_page_first
_citation_page_last
_citation_journal_id_ASTM
primary 'Journal of Power Sources' 2013 226 249 255 JPSODZ
loop_
_citation_author_citation_id
_citation_author_name
primary 'Roberts, Matthew'
primary 'Biendicho, Jordi Jacas'
primary 'Hull, Stephen'
primary 'Beran, Premysl'
primary 'Gustafsson, Torbjoern'
primary 'Svensson, Gunnar'
primary 'Edstroem, Kristina'
_cell_length_a 10.3351(16)
_cell_length_b 6.0088(9)
_cell_length_c 4.6968(7)
_cell_angle_alpha 90.
_cell_angle_beta 90.
_cell_angle_gamma 90.
_cell_volume 291.68
_cell_formula_units_Z 4
_space_group_name_H-M_alt 'P n m a'
_space_group_IT_number 62
loop_
_space_group_symop_id
_space_group_symop_operation_xyz
1 'x+1/2, y, -z+1/2'
2 'x, -y+1/2, z'
3 '-x+1/2, y+1/2, z+1/2'
4 '-x, -y, -z'
5 '-x+1/2, -y, z+1/2'
6 '-x, y+1/2, -z'
7 'x+1/2, -y+1/2, -z+1/2'
8 'x, y, z'
loop_
_atom_type_symbol
_atom_type_oxidation_number
Li1+ 1
Fe2+ 2
P5+ 5
O2- -2
loop_
_atom_site_label
_atom_site_type_symbol
_atom_site_symmetry_multiplicity
_atom_site_Wyckoff_symbol
_atom_site_fract_x
_atom_site_fract_y
_atom_site_fract_z
_atom_site_U_iso_or_equiv
_atom_site_occupancy
Li1 Li1+ 4 a 0 0 0 0.0285 1.
Fe1 Fe2+ 4 c 0.2848(19) 0.25 0.9760(54) 0.0082 1.
P1 P5+ 4 c 0.0952(9) 0.25 0.4135(18) 0.0043 1.
O1 O2- 4 c 0.0847(35) 0.25 0.7345(21) 0.0101 1.
O2 O2- 4 c 0.4601(16) 0.25 0.2055(79) 0.0062 1.
O3 O2- 8 d 0.1653(23) 0.0453(26) 0.3013(42) 0.005 1.
#End of TTdata_290339-ICSD
#
