(C) 2022 by FIZ Karlsruhe - Leibniz Institute for Information Infrastructure.  All rights reserved.
data_155635-ICSD
_database_code_ICSD 155635
_audit_creation_date 2007-08-01
_chemical_name_common 'Lithium iron phosphate(V)'
_chemical_formula_structural 'Li Fe (P O4)'
_chemical_formula_sum 'Fe1 Li1 O4 P1'
_chemical_name_structure_type Olivine#Mg2SiO4
_exptl_crystal_density_diffrn 3.62
_citation_title
'Synthesis and characterization of Li Fe P O4 prepared by sol-gel technique'
loop_
_citation_id
_citation_journal_full
_citation_year
_citation_journal_volume
_citation_page_first
_citation_page_last
_citation_journal_id_ASTM
primary 'Solid State Ionics' 2006 177 497 500 SSIOD3
loop_
_citation_author_citation_id
_citation_author_name
primary 'Sanchez, M.A.E.'
primary 'Brito, G.E.S.'
primary 'Fantini, M.C.A.'
primary 'Goya, G.F.'
primary 'Matos, J.R.'
_cell_length_a 10.3009(3)
_cell_length_b 5.9925(2)
_cell_length_c 4.6942(2)
_cell_angle_alpha 90.
_cell_angle_beta 90.
_cell_angle_gamma 90.
_cell_volume 289.76
_cell_formula_units_Z 4
_space_group_name_H-M_alt 'P n m a'
_space_group_IT_number 62
loop_
_space_group_symop_id
_space_group_symop_operation_xyz
1 'x+1/2, y, -z+1/2'
2 'x, -y+1/2, z'
3 '-x+1/2, y+1/2, z+1/2'
4 '-x, -y, -z'
5 '-x+1/2, -y, z+1/2'
6 '-x, y+1/2, -z'
7 'x+1/2, -y+1/2, -z+1/2'
8 'x, y, z'
loop_
_atom_type_symbol
_atom_type_oxidation_number
Li1+ 1
Fe2+ 2
P5+ 5
O2- -2
loop_
_atom_site_label
_atom_site_type_symbol
_atom_site_symmetry_multiplicity
_atom_site_Wyckoff_symbol
_atom_site_fract_x
_atom_site_fract_y
_atom_site_fract_z
_atom_site_B_iso_or_equiv
_atom_site_occupancy
Li1 Li1+ 4 a 0 0 0 2.95(70) 1.
Fe1 Fe2+ 4 c 0.2825(2) 0.25 0.9751(5) 1.81(8) 1.
P1 P5+ 4 c 0.0953(3) 0.25 0.4168(7) 1.68(15) 1.
O1 O2- 4 c 0.0995(9) 0.25 0.7489(20) 1.31(34) 1.
O2 O2- 4 c 0.4564(9) 0.25 0.2037(20) 2.18(27) 1.
O3 O2- 8 d 0.1642(7) 0.04535(10) 0.2857(13) 1.61(22) 1.
#End of TTdata_155635-ICSD
#
