(C) 2022 by FIZ Karlsruhe - Leibniz Institute for Information Infrastructure.  All rights reserved.
data_169119-ICSD
_database_code_ICSD 169119
_audit_creation_date 2011-02-01
_chemical_name_common 'Sodium iron phosphate (0.71/1/1)'
_chemical_formula_structural 'Na0.71 Fe (P O4)'
_chemical_formula_sum 'Fe1 Na0.71 O4 P1'
_chemical_name_structure_type Olivine#Mg2SiO4
_exptl_crystal_density_diffrn 3.59
_diffrn_ambient_temperature 296.
_citation_title
'Structure and stability of sodium intercalated phases in olivine Fe P O4'
loop_
_citation_id
_citation_journal_full
_citation_year
_citation_journal_volume
_citation_page_first
_citation_page_last
_citation_journal_id_ASTM
primary 'Chemistry of Materials' 2010 22 4126 4128 CMATEX
loop_
_citation_author_citation_id
_citation_author_name
primary 'Moreau, P.'
primary 'Guyomard, D.'
primary 'Gaubicher, J.'
primary 'Boucher, F.'
_cell_length_a 10.2886(7)
_cell_length_b 6.0822(4)
_cell_length_c 4.9372(4)
_cell_angle_alpha 90
_cell_angle_beta 90
_cell_angle_gamma 90
_cell_volume 308.96
_cell_formula_units_Z 4
_space_group_name_H-M_alt 'P n m a'
_space_group_IT_number 62
loop_
_space_group_symop_id
_space_group_symop_operation_xyz
1 'x+1/2, y, -z+1/2'
2 'x, -y+1/2, z'
3 '-x+1/2, y+1/2, z+1/2'
4 '-x, -y, -z'
5 '-x+1/2, -y, z+1/2'
6 '-x, y+1/2, -z'
7 'x+1/2, -y+1/2, -z+1/2'
8 'x, y, z'
loop_
_atom_type_symbol
_atom_type_oxidation_number
Na1+ 1
Fe2+ 2.3
P5+ 5
O2- -2
loop_
_atom_site_label
_atom_site_type_symbol
_atom_site_symmetry_multiplicity
_atom_site_Wyckoff_symbol
_atom_site_fract_x
_atom_site_fract_y
_atom_site_fract_z
_atom_site_U_iso_or_equiv
_atom_site_occupancy
Na1 Na1+ 4 a 0 0 0 0.053(9) 0.710(18)
Fe1 Fe2+ 4 c 0.2848(3) 0.75 0.9840(10) 0.010(2) 1
P1 P5+ 4 c 0.1068(6) 0.75 0.4411(14) 0.013(3) 1
O1 O2- 4 c 0.1187(13) 0.75 0.744(3) 0.009(3) 1
O2 O2- 4 c 0.4622(16) 0.75 0.150(2) 0.009(3) 1
O3 O2- 8 d 0.1740(12) 0.9433(15) 0.2992(16) 0.009(3) 1
loop_
_atom_site_aniso_label
_atom_site_aniso_type_symbol
_atom_site_aniso_U_11
_atom_site_aniso_U_22
_atom_site_aniso_U_33
_atom_site_aniso_U_12
_atom_site_aniso_U_13
_atom_site_aniso_U_23
Na1 Na1+ 0.06(2) 0.086(14) 0.018(14) 0.046(9) 0.021(17) 0.029(12)
#End of TTdata_169119-ICSD
