(C) 2022 by FIZ Karlsruhe - Leibniz Institute for Information Infrastructure.  All rights reserved.
data_194666-ICSD
_database_code_ICSD 194666
_audit_creation_date 2015-08-01
_chemical_name_common
'Lithium iron-0.984 nickel-0.016 cobalt-0.0001 manganese-0.0001 orthophosphate'
_chemical_formula_structural 'Li (Fe0.984 Ni0.016 Co0.0001 Mn0.0001) (P O4)'
_chemical_formula_sum 'Co0.0001 Fe0.984 Li1 Mn0.0001 Ni0.016 O4 P1'
_chemical_name_structure_type Olivine#Mg2SiO4
_exptl_crystal_density_diffrn 3.61
_citation_title

;
A novel preparation route for multi-doped Li Fe P O4/C from spent electroless
nickel plating solution
;
loop_
_citation_id
_citation_journal_full
_citation_year
_citation_journal_volume
_citation_page_first
_citation_page_last
_citation_journal_id_ASTM
primary 'Journal of Alloys and Compounds' 2015 632 185 189 JALCEU
loop_
_citation_author_citation_id
_citation_author_name
primary 'Liu, Wanmin'
primary 'Huang, Qizhong'
primary 'Hu, Guorong'
_cell_length_a 10.3202(8)
_cell_length_b 6.0048(6)
_cell_length_c 4.6908(3)
_cell_angle_alpha 90.
_cell_angle_beta 90.
_cell_angle_gamma 90.
_cell_volume 290.69
_cell_formula_units_Z 4
_space_group_name_H-M_alt 'P n m a'
_space_group_IT_number 62
loop_
_space_group_symop_id
_space_group_symop_operation_xyz
1 'x+1/2, y, -z+1/2'
2 'x, -y+1/2, z'
3 '-x+1/2, y+1/2, z+1/2'
4 '-x, -y, -z'
5 '-x+1/2, -y, z+1/2'
6 '-x, y+1/2, -z'
7 'x+1/2, -y+1/2, -z+1/2'
8 'x, y, z'
loop_
_atom_type_symbol
_atom_type_oxidation_number
Li1+ 1
Fe2+ 2
Ni2+ 2
Co2+ 2
Mn2+ 2
P5+ 5
O2- -2
loop_
_atom_site_label
_atom_site_type_symbol
_atom_site_symmetry_multiplicity
_atom_site_Wyckoff_symbol
_atom_site_fract_x
_atom_site_fract_y
_atom_site_fract_z
_atom_site_B_iso_or_equiv
_atom_site_occupancy
Li1 Li1+ 4 a 0 0 0 . 1.0013(3)
Fe1 Fe2+ 4 c 0.2828(9) 0.2504(6) 0.9739(3) . 0.9836(1)
Ni1 Ni2+ 4 c 0.2828(9) 0.2504(6) 0.9739(3) . 0.0162(8)
Co1 Co2+ 4 c 0.2828(9) 0.2504(6) 0.9739(3) . 0.0001(5)
Mn1 Mn2+ 4 c 0.2828(9) 0.2504(6) 0.9739(3) . 0.0001(5)
P1 P5+ 4 c 0.0946(1) 0.2500(3) 0.4180(2) . 1.
O1 O2- 4 c 0.0959(2) 0.2504(5) 0.7522(8) . 1.
O2 O2- 4 c 0.4568(7) 0.2504(7) 0.2083(9) . 1.
O3 O2- 8 d 0.1658(4) 0.0456(1) 0.2789(5) . 1.
#End of TTdata_194666-ICSD
#
