(C) 2022 by FIZ Karlsruhe - Leibniz Institute for Information Infrastructure.  All rights reserved.
data_92198-ICSD
_database_code_ICSD 92198
_audit_creation_date 2002-10-01
_chemical_name_common 'Lithium iron phosphate(V)'
_chemical_formula_structural 'Li Fe (P O4)'
_chemical_formula_sum 'Fe1 Li1 O4 P1'
_chemical_name_structure_type Olivine#Mg2SiO4
_exptl_crystal_density_diffrn 3.6
_citation_title

;
Lithium extraction/insertion in Li Fe P O4: an X-ray diffraction and Mossbauer
spectroscopy study
;
loop_
_citation_id
_citation_journal_full
_citation_year
_citation_journal_volume
_citation_page_first
_citation_page_last
_citation_journal_id_ASTM
primary 'Solid State Ionics' 2000 130 41 52 SSIOD3
loop_
_citation_author_citation_id
_citation_author_name
primary 'Andersson, A.S.'
primary 'Kalska, B.'
primary 'Haeggstroem, L.'
primary 'Thomas, J.O.'
primary 'Huang Yunhui'
primary 'Shan Bin'
primary 'Chen Rong'
_cell_length_a 10.3290(3)
_cell_length_b 6.0065(2)
_cell_length_c 4.6908(2)
_cell_angle_alpha 90.
_cell_angle_beta 90.
_cell_angle_gamma 90.
_cell_volume 291.02
_cell_formula_units_Z 4
_space_group_name_H-M_alt 'P n m a'
_space_group_IT_number 62
loop_
_space_group_symop_id
_space_group_symop_operation_xyz
1 'x+1/2, y, -z+1/2'
2 'x, -y+1/2, z'
3 '-x+1/2, y+1/2, z+1/2'
4 '-x, -y, -z'
5 '-x+1/2, -y, z+1/2'
6 '-x, y+1/2, -z'
7 'x+1/2, -y+1/2, -z+1/2'
8 'x, y, z'
loop_
_atom_type_symbol
_atom_type_oxidation_number
Li1+ 1
Fe2+ 2
P5+ 5
O2- -2
loop_
_atom_site_label
_atom_site_type_symbol
_atom_site_symmetry_multiplicity
_atom_site_Wyckoff_symbol
_atom_site_fract_x
_atom_site_fract_y
_atom_site_fract_z
_atom_site_B_iso_or_equiv
_atom_site_occupancy
Li1 Li1+ 4 a 0 0 0 3.1(9) 1.
Fe1 Fe2+ 4 c 0.2822(3) 0.25 0.9716(7) 1.7(2) 1.
P1 P5+ 4 c 0.0954(5) 0.25 0.4179(12) 2.0(2) 1.
O1 O2- 4 c 0.0946(11) 0.25 0.7403(21) 1.7(4) 1.
O2 O2- 4 c 0.4538(13) 0.25 0.2056(15) 0.6(3) 1.
O3 O2- 8 d 0.1615(8) 0.0521(2) 0.2861(11) 0.9(3) 1.
#End of TTdata_92198-ICSD
#
