(C) 2022 by FIZ Karlsruhe - Leibniz Institute for Information Infrastructure.  All rights reserved.
data_290338-ICSD
_database_code_ICSD 290338
_audit_creation_date 2014-02-01
_chemical_name_common 'Iron(III) phosphate(V)'
_chemical_formula_structural 'Fe (P O4)'
_chemical_formula_sum 'Fe1 O4 P1'
_chemical_name_structure_type FePO4
_exptl_crystal_density_diffrn 3.68
_citation_title

;
Design of a new lithium ion battery test cell for in-situ neutron diffraction
measurements
;
loop_
_citation_id
_citation_journal_full
_citation_year
_citation_journal_volume
_citation_page_first
_citation_page_last
_citation_journal_id_ASTM
primary 'Journal of Power Sources' 2013 226 249 255 JPSODZ
loop_
_citation_author_citation_id
_citation_author_name
primary 'Roberts, Matthew'
primary 'Biendicho, Jordi Jacas'
primary 'Hull, Stephen'
primary 'Beran, Premysl'
primary 'Gustafsson, Torbjoern'
primary 'Svensson, Gunnar'
primary 'Edstroem, Kristina'
_cell_length_a 9.8228(19)
_cell_length_b 5.7856(10)
_cell_length_c 4.7848(10)
_cell_angle_alpha 90.
_cell_angle_beta 90.
_cell_angle_gamma 90.
_cell_volume 271.92
_cell_formula_units_Z 4
_space_group_name_H-M_alt 'P n m a'
_space_group_IT_number 62
loop_
_space_group_symop_id
_space_group_symop_operation_xyz
1 'x+1/2, y, -z+1/2'
2 'x, -y+1/2, z'
3 '-x+1/2, y+1/2, z+1/2'
4 '-x, -y, -z'
5 '-x+1/2, -y, z+1/2'
6 '-x, y+1/2, -z'
7 'x+1/2, -y+1/2, -z+1/2'
8 'x, y, z'
loop_
_atom_type_symbol
_atom_type_oxidation_number
Fe3+ 3
P5+ 5
O2- -2
loop_
_atom_site_label
_atom_site_type_symbol
_atom_site_symmetry_multiplicity
_atom_site_Wyckoff_symbol
_atom_site_fract_x
_atom_site_fract_y
_atom_site_fract_z
_atom_site_U_iso_or_equiv
_atom_site_occupancy
Fe1 Fe3+ 4 c 0.2772(23) 0.25 0.9553(43) 0.006 1.
P1 P5+ 4 c 0.0955(39) 0.25 0.4163(93) 0.006 1.
O1 O2- 4 c 0.1148(34) 0.25 0.7151(70) 0.006 1.
O2 O2- 4 c 0.4401(41) 0.25 0.1782(72) 0.006 1.
O3 O2- 8 d 0.1677(59) 0.0352(87) 0.2672(109) 0.006 1.
#End of TTdata_290338-ICSD
#
