(C) 2022 by FIZ Karlsruhe - Leibniz Institute for Information Infrastructure.  All rights reserved.
data_154670-ICSD
_database_code_ICSD 154670
_audit_creation_date 2007-04-01
_audit_update_record 2016-02-01
_chemical_name_common 'Lithium iron vanadium(II) phosphate(V) (1/0.9//0.1/1)'
_chemical_formula_structural 'Li (Fe0.9 V0.1) (P O4)'
_chemical_formula_sum 'Fe0.9 Li1 O4 P1 V0.1'
_chemical_name_structure_type Olivine#Mg2SiO4
_exptl_crystal_density_diffrn 3.59
_citation_title 'Structure and properties of Li Fe0.9 V0.1 P O4'
loop_
_citation_id
_citation_journal_full
_citation_year
_citation_journal_volume
_citation_page_first
_citation_page_last
_citation_journal_id_ASTM
primary 'Journal of Alloys and Compounds' 2006 416 206 208 JALCEU
loop_
_citation_author_citation_id
_citation_author_name
primary 'Wen Yanxuan'
primary 'Zeng Ling Min'
primary 'Tong Zhang-Fa'
primary 'Nong Liang Qin'
primary 'Wei Weixing'
_cell_length_a 10.3155(8)
_cell_length_b 6.0032(5)
_cell_length_c 4.7011(3)
_cell_angle_alpha 90.
_cell_angle_beta 90.
_cell_angle_gamma 90.
_cell_volume 291.12
_cell_formula_units_Z 4
_space_group_name_H-M_alt 'P n m a'
_space_group_IT_number 62
loop_
_space_group_symop_id
_space_group_symop_operation_xyz
1 'x+1/2, y, -z+1/2'
2 'x, -y+1/2, z'
3 '-x+1/2, y+1/2, z+1/2'
4 '-x, -y, -z'
5 '-x+1/2, -y, z+1/2'
6 '-x, y+1/2, -z'
7 'x+1/2, -y+1/2, -z+1/2'
8 'x, y, z'
loop_
_atom_type_symbol
_atom_type_oxidation_number
Li1+ 1
V2+ 2
Fe2+ 2
P5+ 5
O2- -2
loop_
_atom_site_label
_atom_site_type_symbol
_atom_site_symmetry_multiplicity
_atom_site_Wyckoff_symbol
_atom_site_fract_x
_atom_site_fract_y
_atom_site_fract_z
_atom_site_B_iso_or_equiv
_atom_site_occupancy
Li1 Li1+ 4 a 0 0 0 0.82 1.
V1 V2+ 4 c 0.2821(1) 0.25 0.9743(4) 1.16 0.097
Fe1 Fe2+ 4 c 0.2821(1) 0.25 0.9743(4) 1.16 0.903
P1 P5+ 4 c 0.0958(2) 0.25 0.4186(5) 0.61 1.
O1 O2- 4 c 0.0954(6) 0.25 0.7400(1) 0.52 1.
O2 O2- 4 c 0.4562(6) 0.25 0.2007(1) 0.28 1.
O3 O2- 8 d 0.1659(4) 0.0477(7) 0.2846(7) 0.38 1.
#End of TTdata_154670-ICSD
#
