(C) 2022 by FIZ Karlsruhe - Leibniz Institute for Information Infrastructure.  All rights reserved.
data_246859-ICSD
_database_code_ICSD 246859
_audit_creation_date 2010-02-01
_audit_update_record 2016-02-01
_chemical_name_common 'Tetralithium diphosphate(V)'
_chemical_formula_structural 'Li4 (P2 O7)'
_chemical_formula_sum 'Li4 O7 P2'
_chemical_name_structure_type Li4P2O7
_exptl_crystal_density_diffrn 2.37
_diffrn_ambient_temperature 293.
_citation_title

;
Nature of insulating-phase transition and degradation of structure and
electrochemical reactivity in an olivine-structured material, Li Fe P O4
;
loop_
_citation_id
_citation_journal_full
_citation_year
_citation_journal_volume
_citation_page_first
_citation_page_last
_citation_journal_id_ASTM
primary 'Inorganic Chemistry' 2009 48 8271 8275 INOCAJ
loop_
_citation_author_citation_id
_citation_author_name
primary 'Song Min-Sang'
primary 'Kang Yong-Mook'
primary 'Kim Yong-Il'
primary 'Park Kyu-Sung'
primary 'Kwon Hyuk-Sang'
_cell_length_a 8.5392(1)
_cell_length_b 7.0984(1)
_cell_length_c 5.1677(1)
_cell_angle_alpha 111.66(2)
_cell_angle_beta 90.19(2)
_cell_angle_gamma 102.95(1)
_cell_volume 282.43
_cell_formula_units_Z 2
_space_group_name_H-M_alt 'P -1'
_space_group_IT_number 2
loop_
_space_group_symop_id
_space_group_symop_operation_xyz
1 '-x, -y, -z'
2 'x, y, z'
loop_
_atom_type_symbol
_atom_type_oxidation_number
Li1+ 1
P5+ 5
O2- -2
loop_
_atom_site_label
_atom_site_type_symbol
_atom_site_symmetry_multiplicity
_atom_site_Wyckoff_symbol
_atom_site_fract_x
_atom_site_fract_y
_atom_site_fract_z
_atom_site_U_iso_or_equiv
_atom_site_occupancy
Li1 Li1+ 2 i 0.9108(2) 0.5592(1) 0.5655(2) 0.0135(4) 1.
Li2 Li1+ 2 i 0.5616(2) 0.7200(1) 0.5600(2) 0.0072(4) 1.
Li3 Li1+ 2 i 0.6723(2) 0.2773(1) 0.8893(2) 0.0149(4) 1.
Li4 Li1+ 2 i 0.9588(1) 0.8903(2) 0.1733(2) 0.0106(4) 1.
P1 P5+ 2 i 0.8361(1) 0.2207(2) 0.3906(1) 0.0150(2) 1.
P2 P5+ 2 i 0.6173(1) -0.2348(2) 0.2080(1) 0.0105(2) 1.
O1 O2- 2 i 0.6701(2) 0.0001(1) 0.2565(1) 0.0157(1) 1.
O2 O2- 2 i 0.9099(1) 0.2662(2) 0.7387(2) 0.0194(1) 1.
O3 O2- 2 i 0.7861(1) 0.3514(1) 0.3700(2) 0.0142(2) 1.
O4 O2- 2 i 0.9268(2) 0.0847(1) 0.2899(1) 0.0044(1) 1.
O5 O2- 2 i 0.6522(1) -0.2776(2) 0.4520(2) 0.0018(1) 1.
O6 O2- 2 i 0.4613(1) -0.2438(1) -0.0082(2) 0.0176(2) 1.
O7 O2- 2 i 0.8504(1) -0.2346(1) 0.0607(2) 0.0080(2) 1.
#End of TTdata_246859-ICSD
#
