(C) 2022 by FIZ Karlsruhe - Leibniz Institute for Information Infrastructure.  All rights reserved.
data_290336-ICSD
_database_code_ICSD 290336
_audit_creation_date 2014-02-01
_chemical_name_common 'Lithium iron phosphate(V)'
_chemical_formula_structural 'Li Fe (P O4)'
_chemical_formula_sum 'Fe1 Li1 O4 P1'
_chemical_name_structure_type Olivine#Mg2SiO4
_exptl_crystal_density_diffrn 3.61
_citation_title

;
Design of a new lithium ion battery test cell for in-situ neutron diffraction
measurements
;
loop_
_citation_id
_citation_journal_full
_citation_year
_citation_journal_volume
_citation_page_first
_citation_page_last
_citation_journal_id_ASTM
primary 'Journal of Power Sources' 2013 226 249 255 JPSODZ
loop_
_citation_author_citation_id
_citation_author_name
primary 'Roberts, Matthew'
primary 'Biendicho, Jordi Jacas'
primary 'Hull, Stephen'
primary 'Beran, Premysl'
primary 'Gustafsson, Torbjoern'
primary 'Svensson, Gunnar'
primary 'Edstroem, Kristina'
_cell_length_a 10.3337(43)
_cell_length_b 5.9984(23)
_cell_length_c 4.6869(19)
_cell_angle_alpha 90.
_cell_angle_beta 90.
_cell_angle_gamma 90.
_cell_volume 290.52
_cell_formula_units_Z 4
_space_group_name_H-M_alt 'P n m a'
_space_group_IT_number 62
loop_
_space_group_symop_id
_space_group_symop_operation_xyz
1 'x+1/2, y, -z+1/2'
2 'x, -y+1/2, z'
3 '-x+1/2, y+1/2, z+1/2'
4 '-x, -y, -z'
5 '-x+1/2, -y, z+1/2'
6 '-x, y+1/2, -z'
7 'x+1/2, -y+1/2, -z+1/2'
8 'x, y, z'
loop_
_atom_type_symbol
_atom_type_oxidation_number
Li1+ 1
Fe2+ 2
P5+ 5
O2- -2
loop_
_atom_site_label
_atom_site_type_symbol
_atom_site_symmetry_multiplicity
_atom_site_Wyckoff_symbol
_atom_site_fract_x
_atom_site_fract_y
_atom_site_fract_z
_atom_site_U_iso_or_equiv
_atom_site_occupancy
Li1 Li1+ 4 a 0 0 0 0.006 1.
Fe1 Fe2+ 4 c 0.2845(45) 0.25 0.9966(122) 0.006 1.
P1 P5+ 4 c 0.1065(80) 0.25 0.4186(167) 0.006 1.
O1 O2- 4 c 0.0930(78) 0.25 0.7013(164) 0.006 1.
O2 O2- 4 c 0.4485(77) 0.25 0.1911(186) 0.006 1.
O3 O2- 8 d 0.1669(124) 0.0619(166) 0.2626(224) 0.006 1.
#End of TTdata_290336-ICSD
#
