(C) 2022 by FIZ Karlsruhe - Leibniz Institute for Information Infrastructure.  All rights reserved.
data_242140-ICSD
_database_code_ICSD 242140
_audit_creation_date 2017-08-01
_chemical_name_common 'Lithium manganese phosphate(V) - LMP'
_chemical_formula_structural 'Li Mn (P O4)'
_chemical_formula_sum 'Li1 Mn1 O4 P1'
_chemical_name_structure_type Olivine#Mg2SiO4
_exptl_crystal_density_diffrn 3.44
_citation_title
'Electrochemical features of LiMnPO4 olivine prepared by sol-gel pathway'
_publ_section_comment 'Cell and Type only determined'
loop_
_citation_id
_citation_journal_full
_citation_year
_citation_journal_volume
_citation_page_first
_citation_page_last
_citation_journal_id_ASTM
primary 'Journal of Alloys and Compounds' 2017 693 730 737 JALCEU
loop_
_citation_author_citation_id
_citation_author_name
primary 'Di Lecce, Daniele'
primary 'Hu, Tao'
primary 'Hassoun, Jusef'
_cell_length_a 6.10(2)
_cell_length_b 10.46(3)
_cell_length_c 4.744(10)
_cell_angle_alpha 90.
_cell_angle_beta 90.
_cell_angle_gamma 90.
_cell_volume 302.7
_cell_formula_units_Z 4
_space_group_name_H-M_alt 'P m n b'
_space_group_IT_number 62
loop_
_space_group_symop_id
_space_group_symop_operation_xyz
1 'x, y+1/2, -z+1/2'
2 '-x+1/2, y, z'
3 'x+1/2, -y+1/2, z+1/2'
4 '-x, -y, -z'
5 '-x, -y+1/2, z+1/2'
6 'x+1/2, -y, -z'
7 '-x+1/2, y+1/2, -z+1/2'
8 'x, y, z'
loop_
_atom_type_symbol
_atom_type_oxidation_number
Li1+ 1
Mn2+ 2
P5+ 5
O2- -2
loop_
_atom_site_label
_atom_site_type_symbol
_atom_site_symmetry_multiplicity
_atom_site_Wyckoff_symbol
_atom_site_fract_x
_atom_site_fract_y
_atom_site_fract_z
_atom_site_B_iso_or_equiv
_atom_site_occupancy
Li1 Li1+ 4 a 0 0 0 . 1.
Mn1 Mn2+ 4 c 0.25 0.2817(1) -.0281(4) . 1.
P1 P5+ 4 c 0.25 0.0923(3) 0.4081(7) . 1.
O1 O2- 4 c 0.25 0.0968(9) -.2664(21) . 1.
O2 O2- 4 c 0.25 0.4561(8) 0.2073(20) . 1.
O3 O2- 8 d 0.0492(12) 0.1609(6) 0.2781(14) . 1.
#End of TTdata_242140-ICSD
#
