(C) 2022 by FIZ Karlsruhe - Leibniz Institute for Information Infrastructure.  All rights reserved.
data_162282-ICSD
_database_code_ICSD 162282
_audit_creation_date 2009-08-01
_chemical_name_common 'Lithium iron phosphate(V)'
_chemical_formula_structural 'Li Fe (P O4)'
_chemical_formula_sum 'Fe1 Li1 O4 P1'
_chemical_name_structure_type Olivine#Mg2SiO4
_exptl_crystal_density_diffrn 3.6
_diffrn_ambient_temperature 300.
_citation_title

;
C-containing Li Fe P O4 materials - Part I: Mechano-chemical synthesis and
structural characterization
;
loop_
_citation_id
_citation_journal_full
_citation_year
_citation_journal_volume
_citation_page_first
_citation_page_last
_citation_journal_id_ASTM
primary 'Solid State Ionics' 2008 179 2020 2026 SSIOD3
loop_
_citation_author_citation_id
_citation_author_name
primary 'Maccario, M.'
primary 'Croguennec, L.'
primary 'Wattiaux, A.'
primary 'Suard, E.'
primary 'le Cras, F.'
primary 'Delmas, C.'
_cell_length_a 10.3294(3)
_cell_length_b 6.0086(2)
_cell_length_c 4.6948(2)
_cell_angle_alpha 90.
_cell_angle_beta 90.
_cell_angle_gamma 90.
_cell_volume 291.38
_cell_formula_units_Z 4
_space_group_name_H-M_alt 'P n m a'
_space_group_IT_number 62
loop_
_space_group_symop_id
_space_group_symop_operation_xyz
1 'x+1/2, y, -z+1/2'
2 'x, -y+1/2, z'
3 '-x+1/2, y+1/2, z+1/2'
4 '-x, -y, -z'
5 '-x+1/2, -y, z+1/2'
6 '-x, y+1/2, -z'
7 'x+1/2, -y+1/2, -z+1/2'
8 'x, y, z'
loop_
_atom_type_symbol
_atom_type_oxidation_number
Li1+ 1
Fe2+ 2
P5+ 5
O2- -2
loop_
_atom_site_label
_atom_site_type_symbol
_atom_site_symmetry_multiplicity
_atom_site_Wyckoff_symbol
_atom_site_fract_x
_atom_site_fract_y
_atom_site_fract_z
_atom_site_B_iso_or_equiv
_atom_site_occupancy
Li1 Li1+ 4 a 0 0 0 2(1) 1.
Fe1 Fe2+ 4 c 0.2823(3) 0.25 0.974(1) 1.0(2) 1.
P1 P5+ 4 c 0.0966(6) 0.25 0.422(1) 0.8(2) 1.
O1 O2- 4 c 0.092(1) 0.25 0.747(3) 0.6(4) 1.
O2 O2- 4 c 0.455(2) 0.25 0.203(2) 0.6(1) 1.
O3 O2- 8 d 0.164(1) 0.051(2) 0.285(2) 0.8(1) 1.
#End of TTdata_162282-ICSD
#
