(C) 2022 by FIZ Karlsruhe - Leibniz Institute for Information Infrastructure.  All rights reserved.
data_65125-ICSD
_database_code_ICSD 65125
_audit_creation_date 1989-06-19
_audit_update_record 2011-02-01
_chemical_name_common 'Lithium gallium silicate - alpha'
_chemical_formula_structural 'Li Ga (Si O4)'
_chemical_formula_sum 'Ga1 Li1 O4 Si1'
_chemical_name_structure_type LiGaSiO4
_exptl_crystal_density_diffrn 3.44
_citation_title

;
Crystal structures of alpha-Li Ga Si O4, alpha-Li Al Ge O4, and alpha-Li Ga Ge
O4
;
loop_
_citation_id
_citation_journal_full
_citation_year
_citation_journal_volume
_citation_page_first
_citation_page_last
_citation_journal_id_ASTM
primary 'Zeitschrift fuer Kristallographie' 1987 180 63 75 ZEKRDZ
loop_
_citation_author_citation_id
_citation_author_name
primary 'Fleet, M.E.'
_cell_length_a 13.6427(11)
_cell_length_b 13.6427(11)
_cell_length_c 9.0965(7)
_cell_angle_alpha 90.
_cell_angle_beta 90.
_cell_angle_gamma 120.
_cell_volume 1466.24
_cell_formula_units_Z 18
_space_group_name_H-M_alt 'R 3 H'
_space_group_IT_number 146
loop_
_space_group_symop_id
_space_group_symop_operation_xyz
1 '-x+y, -x, z'
2 '-y, x-y, z'
3 'x, y, z'
4 '-x+y+2/3, -x+1/3, z+1/3'
5 '-y+2/3, x-y+1/3, z+1/3'
6 'x+2/3, y+1/3, z+1/3'
7 '-x+y+1/3, -x+2/3, z+2/3'
8 '-y+1/3, x-y+2/3, z+2/3'
9 'x+1/3, y+2/3, z+2/3'
loop_
_atom_type_symbol
_atom_type_oxidation_number
Ga3+ 3
Li1+ 1
Si4+ 4
Li1+ 1
O2- -2
loop_
_atom_site_label
_atom_site_type_symbol
_atom_site_symmetry_multiplicity
_atom_site_Wyckoff_symbol
_atom_site_fract_x
_atom_site_fract_y
_atom_site_fract_z
_atom_site_B_iso_or_equiv
_atom_site_occupancy
Ga1 Ga3+ 9 b 0.4510(1) 0.1375(1) 0.0834 . 1.
Ga2 Ga3+ 9 b 0.5424(1) 0.8622(1) 0.9167(1) . 1.
Li1 Li1+ 9 b 0.1249(11) 0.4763(13) 0.0782(19) . 1.
Si1 Si4+ 9 b 0.8792(2) 0.5294(2) 0.9173(2) . 1.
Si2 Si4+ 9 b 0.0126(2) 0.2103(2) 0.0842(2) . 1.
Li2 Li1+ 9 b 0.9803(10) 0.7909(10) 0.9081(18) . 1.
O1 O2- 9 b 0.5450(2) 0.4254(2) 0.0586(3) . 1.
O2 O2- 9 b 0.4574(2) 0.5845(2) 0.8949(3) . 1.
O3 O2- 9 b 0.0018(3) 0.3245(3) 0.0847(4) . 1.
O4 O2- 9 b 0.9939(3) 0.6548(3) 0.9193(4) . 1.
O5 O2- 9 b 0.2195(2) 0.1168(2) 0.0951(3) . 1.
O6 O2- 9 b 0.7973(2) 0.8702(2) 0.9316(3) . 1.
O7 O2- 9 b 0.2616(3) 0.4637(2) 0.0962(3) . 1.
O8 O2- 9 b 0.7713(2) 0.5495(2) 0.9289(3) . 1.
loop_
_atom_site_aniso_label
_atom_site_aniso_type_symbol
_atom_site_aniso_B_11
_atom_site_aniso_B_22
_atom_site_aniso_B_33
_atom_site_aniso_B_12
_atom_site_aniso_B_13
_atom_site_aniso_B_23
Ga1 Ga3+ 0.40(2) 0.41(2) 0.34(2) 0.17(2) 0.00(2) 0.00(2)
Ga2 Ga3+ 0.48(2) 0.49(2) 0.37(2) 0.33(2) -.01(2) -.01(2)
Li1 Li1+ 0.61(5) 0.57(4) 0.38(4) 0.40(4) 0.06(3) 0.07(3)
Si1 Si4+ 0.67(5) 0.59(5) 0.36(4) 0.41(4) -.07(4) 0.04(3)
#End of TTdata_65125-ICSD
#
