(C) 2022 by FIZ Karlsruhe - Leibniz Institute for Information Infrastructure.  All rights reserved.
data_414425-ICSD
_database_code_ICSD 414425
_audit_creation_date 2005-10-01
_chemical_name_common 'Dicesium stannotrisilicate'
_chemical_formula_structural 'Cs2 Sn Si3 O9'
_chemical_formula_sum 'Cs2 O9 Si3 Sn1'
_exptl_crystal_density_diffrn 4.2
_diffrn_ambient_temperature 296.
_citation_title

;
High-temperature, high-pressure hydrothermal synthesis and characterization of
a new framework stannosilicate: Cs2 Sn Si3 O9
;
loop_
_citation_id
_citation_journal_full
_citation_year
_citation_journal_volume
_citation_page_first
_citation_page_last
_citation_journal_id_ASTM
primary 'Journal of Solid State Chemistry' 2005 178 1017 1022 JSSCBI
loop_
_citation_author_citation_id
_citation_author_name
primary 'Lo, F.-R.'
primary 'Lii, K.-H.'
_cell_length_a 7.9612(7)
_cell_length_b 10.3444(9)
_cell_length_c 11.7798(11)
_cell_angle_alpha 90.
_cell_angle_beta 90.
_cell_angle_gamma 90.
_cell_volume 970.11
_cell_formula_units_Z 4
_space_group_name_H-M_alt 'P 21 21 21'
_space_group_IT_number 19
loop_
_space_group_symop_id
_space_group_symop_operation_xyz
1 '-x, y+1/2, -z+1/2'
2 'x+1/2, -y+1/2, -z'
3 '-x+1/2, -y, z+1/2'
4 'x, y, z'
loop_
_atom_type_symbol
_atom_type_oxidation_number
Cs1+ 1
Sn4+ 4
Si4+ 4
O2- -2
loop_
_atom_site_label
_atom_site_type_symbol
_atom_site_symmetry_multiplicity
_atom_site_Wyckoff_symbol
_atom_site_fract_x
_atom_site_fract_y
_atom_site_fract_z
_atom_site_U_iso_or_equiv
_atom_site_occupancy
Cs1 Cs1+ 4 a 0.26611(4) -0.28848(3) 0.10250(3) 0.01745(8) 1
Cs2 Cs1+ 4 a -0.07570(4) -0.10685(3) 0.52098(3) 0.01942(8) 1
Sn1 Sn4+ 4 a 0.24517(4) 0.09024(3) 0.26362(2) 0.00711(7) 1
Si1 Si4+ 4 a 0.07899(15) 0.38979(12) 0.29138(10) 0.0084(2) 1
Si2 Si4+ 4 a 0.08494(15) 0.02503(11) 0.00717(10) 0.0082(2) 1
Si3 Si4+ 4 a 0.44018(15) 0.37338(12) 0.21401(10) 0.0080(3) 1
O1 O2- 4 a 0.2588(4) 0.4420(3) 0.2414(3) 0.0129(6) 1
O2 O2- 4 a -0.0677(4) 0.4496(3) 0.2156(3) 0.0140(7) 1
O3 O2- 4 a 0.0808(4) 0.2350(3) 0.2995(3) 0.0131(7) 1
O4 O2- 4 a 0.0585(4) 0.4440(3) 0.4216(2) 0.0131(7) 1
O5 O2- 4 a 0.1927(3) 0.1115(3) 0.0935(2) 0.0106(6) 1
O6 O2- 4 a -0.0295(4) 0.1163(3) -0.0766(2) 0.0124(7) 1
O7 O2- 4 a 0.1951(4) -0.0723(3) -0.0681(2) 0.0121(7) 1
O8 O2- 4 a 0.4339(4) 0.2230(3) 0.2471(3) 0.0111(6) 1
O9 O2- 4 a 0.5839(4) 0.4496(3) 0.2810(2) 0.0119(7) 1
loop_
_atom_site_aniso_label
_atom_site_aniso_type_symbol
_atom_site_aniso_U_11
_atom_site_aniso_U_22
_atom_site_aniso_U_33
_atom_site_aniso_U_12
_atom_site_aniso_U_13
_atom_site_aniso_U_23
Cs1 Cs1+ 0.01632(15) 0.01564(14) 0.02039(15) 0.00272(14) -0.00115(14)
-0.00289(11)
Cs2 Cs1+ 0.02192(15) 0.01969(16) 0.01665(15) 0.00357(15) -0.00494(13)
0.00076(13)
Sn1 Sn4+ 0.00668(12) 0.00653(13) 0.00813(13) -0.00009(14) -0.00044(13)
-0.00004(11)
Si1 Si4+ 0.0078(5) 0.0083(6) 0.0090(6) 0.0019(6) 0.0010(5) -0.0004(5)
Si2 Si4+ 0.0072(5) 0.0082(6) 0.0092(6) -0.0002(5) 0.0006(5) 0.0007(5)
Si3 Si4+ 0.0079(5) 0.0078(6) 0.0082(6) -0.0008(5) 0.0008(5) 0.0001(4)
O1 O2- 0.0094(13) 0.0091(14) 0.0203(16) 0.0004(15) 0.0078(16) 0.0019(12)
O2 O2- 0.0147(15) 0.0143(17) 0.0130(17) 0.0094(15) -0.0030(15) -0.0043(13)
O3 O2- 0.0093(14) 0.0090(17) 0.0209(18) 0.0029(14) 0.0049(15) -0.0003(13)
O4 O2- 0.0130(15) 0.0162(17) 0.0103(16) 0.0046(14) 0.0027(14) -0.0024(13)
O5 O2- 0.0113(14) 0.0115(16) 0.0090(15) -0.0019(13) -0.0003(12) -0.0001(14)
O6 O2- 0.0119(15) 0.0162(17) 0.0089(16) 0.0041(14) -0.0026(12) 0.0008(13)
O7 O2- 0.0155(15) 0.0143(18) 0.0066(15) 0.0048(13) 0.0016(12) -0.0002(13)
O8 O2- 0.0125(14) 0.0084(15) 0.0124(16) 0.0004(14) 0.0030(15) 0.0002(13)
O9 O2- 0.0165(16) 0.0100(16) 0.0092(16) -0.0058(14) 0.0001(15) 0.0014(12)
#End of TTdata_414425-ICSD
#
