(C) 2022 by FIZ Karlsruhe - Leibniz Institute for Information Infrastructure.  All rights reserved.
data_69033-ICSD
_database_code_ICSD 69033
_audit_creation_date 1992-01-20
_audit_update_record 2005-10-01
_chemical_name_common
'Dipotassium tris(oxovanadium) bis(diphosphate(V)) - beta, HT'
_chemical_formula_structural 'K2 (V O)3 (P2 O7)2'
_chemical_formula_sum 'K2 O17 P4 V3'
_exptl_crystal_density_diffrn 2.81
_citation_title
'beta-K2 V3 P4 O17: a Vanadium(IV) pyrophosphate with a layer structure'
loop_
_citation_id
_citation_journal_full
_citation_year
_citation_journal_volume
_citation_page_first
_citation_page_last
_citation_journal_id_ASTM
primary 'Journal of Solid State Chemistry' 1990 87 396 401 JSSCBI
loop_
_citation_author_citation_id
_citation_author_name
primary 'Lii, K.-H.'
primary 'Tsai, H.-J.'
primary 'Wang, S.-L.'
_cell_length_a 9.298(3)
_cell_length_b 4.879(2)
_cell_length_c 17.998(9)
_cell_angle_alpha 90.
_cell_angle_beta 114.98(3)
_cell_angle_gamma 90.
_cell_volume 740.1
_cell_formula_units_Z 2
_space_group_name_H-M_alt 'P 1 21/c 1'
_space_group_IT_number 14
loop_
_space_group_symop_id
_space_group_symop_operation_xyz
1 'x, -y+1/2, z+1/2'
2 '-x, -y, -z'
3 '-x, y+1/2, -z+1/2'
4 'x, y, z'
loop_
_atom_type_symbol
_atom_type_oxidation_number
K1+ 1
V4+ 4
P5+ 5
O2- -2
loop_
_atom_site_label
_atom_site_type_symbol
_atom_site_symmetry_multiplicity
_atom_site_Wyckoff_symbol
_atom_site_fract_x
_atom_site_fract_y
_atom_site_fract_z
_atom_site_U_iso_or_equiv
_atom_site_occupancy
K1 K1+ 4 e 0.3214(6) -.018(3) 0.8278(2) 0.088(2) 1.
V1 V4+ 4 e 0.1348(2) 0.022(1) 0.1484(1) 0.0153(9) 1.
V2 V4+ 4 e 0.499(2) 0.5902(8) 0.0002(9) 0.019(2) 0.5
P1 P5+ 4 e 0.8749(3) 0.507(2) 0.0711(2) 0.018(1) 1.
P2 P5+ 4 e 0.3038(3) 0.505(2) 0.1043(2) 0.017(1) 1.
O1 O2- 4 e 0.281(1) 0.206(2) 0.1189(6) 0.029(2) 1.
O2 O2- 4 e 0.175(1) -.081(2) 0.2405(6) 0.034(3) 1.
O3 O2- 4 e 0.293(1) 0.690(2) 0.1676(6) 0.023(2) 1.
O4 O2- 4 e 0.2846(8) 0.047(2) 0.4254(4) 0.018(2) 1.
O5 O2- 4 e 0.4577(8) -.041(2) 0.5939(4) 0.019(2) 1.
O6 O2- 4 e 0.164(1) 0.900(2) 0.5202(5) 0.021(2) 1.
O7 O2- 4 e -.042(1) 0.223(2) 0.0817(7) 0.035(3) 1.
O8 O2- 4 e 0.512(6) 0.574(3) 0.506(3) 0.042(7) 0.5
O9 O2- 4 e 0.027(1) 0.211(2) 0.3718(6) 0.028(2) 1.
#End of TTdata_69033-ICSD
#
