(C) 2022 by FIZ Karlsruhe - Leibniz Institute for Information Infrastructure.  All rights reserved.
data_66699-ICSD
_database_code_ICSD 66699
_audit_creation_date 1995-10-17
_chemical_name_common 'Barium dioxovanadium phosphate'
_chemical_formula_structural 'Ba (V O2) (P O4)'
_chemical_formula_sum 'Ba1 O6 P1 V1'
_chemical_name_structure_type LiBaCrF6
_exptl_crystal_density_diffrn 4.25
_diffrn_ambient_temperature 297.
_citation_title

;
Hydrothermal synthesis and structures of two layered dioxovanadium(V)
phosphates A(VO2)PO4 (A= Ba, Sr)
;
loop_
_citation_id
_citation_journal_full
_citation_year
_citation_journal_volume
_citation_page_first
_citation_page_last
_citation_journal_id_ASTM
primary 'Acta Crystallographica, Section C: Crystal Structure Communications'
1992 48 975 978 ACSCEE
loop_
_citation_author_citation_id
_citation_author_name
primary 'Kang, H.-Y.'
primary 'Wang, S.-L.'
primary 'Lii, K.-H.'
_cell_length_a 5.616(2)
_cell_length_b 10.062(1)
_cell_length_c 8.727(1)
_cell_angle_alpha 90.
_cell_angle_beta 90.90(2)
_cell_angle_gamma 90.
_cell_volume 493.09
_cell_formula_units_Z 4
_space_group_name_H-M_alt 'P 1 21/c 1'
_space_group_IT_number 14
loop_
_space_group_symop_id
_space_group_symop_operation_xyz
1 'x, -y+1/2, z+1/2'
2 '-x, -y, -z'
3 '-x, y+1/2, -z+1/2'
4 'x, y, z'
loop_
_atom_type_symbol
_atom_type_oxidation_number
Ba2+ 2
V5+ 5
P5+ 5
O2- -2
loop_
_atom_site_label
_atom_site_type_symbol
_atom_site_symmetry_multiplicity
_atom_site_Wyckoff_symbol
_atom_site_fract_x
_atom_site_fract_y
_atom_site_fract_z
_atom_site_B_iso_or_equiv
_atom_site_occupancy
Ba1 Ba2+ 4 e 0.16138(3) 0.68667(2) 0.08426(2) . 1.
V1 V5+ 4 e 0.6591(1) 0.58669(6) 0.41399(6) . 1.
P1 P5+ 4 e 0.3445(2) 0.38096(8) 0.22217(9) . 1.
O1 O2- 4 e 0.7156(5) 0.6716(3) 0.6145(3) . 1.
O2 O2- 4 e 0.4840(5) 0.5142(2) 0.2332(3) . 1.
O3 O2- 4 e 0.4956(4) 0.7727(2) 0.3490(3) . 1.
O4 O2- 4 e 0.9109(5) 0.6255(3) 0.3384(3) . 1.
O5 O2- 4 e 0.3043(4) 0.5668(2) 0.5152(3) . 1.
O6 O2- 4 e 0.1236(5) 0.4105(3) 0.1281(3) . 1.
loop_
_atom_site_aniso_label
_atom_site_aniso_type_symbol
_atom_site_aniso_U_11
_atom_site_aniso_U_22
_atom_site_aniso_U_33
_atom_site_aniso_U_12
_atom_site_aniso_U_13
_atom_site_aniso_U_23
Ba1 Ba2+ 0.0122(2) 0.0094(1) 0.0089(1) -.00124(5) 0.00026(8) 0.00159(5)
V1 V5+ 0.0089(2) 0.0067(2) 0.0068(2) -.0001(2) 0.0008(2) 0.0001(2)
P1 P5+ 0.0106(3) 0.0079(3) 0.0055(3) 0.0004(2) 0.0002(2) -.0012(2)
O1 O2- 0.0238(12) 0.0142(10) 0.0051(9) -.0050(9) 0.0034(9) -.0014(8)
O2 O2- 0.016(1) 0.0082(9) 0.0078(9) -.0017(8) -.0005(8) -.0002(7)
O3 O2- 0.0132(10) 0.0093(10) 0.0135(10) -.0019(8) 0.0037(8) 0.0041(8)
O4 O2- 0.0124(10) 0.0186(12) 0.0132(10) 0.0001(9) 0.0024(8) 0.0037(9)
O5 O2- 0.0113(10) 0.0101(9) 0.0095(9) 0.0010(8) 0.0013(8) 0.0019(7)
O6 O2- 0.0167(11) 0.0118(10) 0.0155(11) 0.0006(9) -.0047(9) -.0011(9)
#End of TTdata_66699-ICSD
#
