(C) 2022 by FIZ Karlsruhe - Leibniz Institute for Information Infrastructure.  All rights reserved.
data_249678-ICSD
_database_code_ICSD 249678
_audit_creation_date 2009-02-01
_chemical_name_common 'Trirubidium hexaoxotriuranate(V) digermanate'
_chemical_formula_structural 'Rb3 (U3 O6) (Ge2 O7)'
_chemical_formula_sum 'Ge2 O13 Rb3 U3'
_chemical_name_structure_type K3Nb3O6Si2O7
_exptl_crystal_density_diffrn 6.28
_diffrn_ambient_temperature 293.
_citation_title

;
K3 (U3 O6) (Si2 O7) and Rb3 (U3 O6) (Ge2 O7): A pentavalent-uranium silicate
and germanate
;
loop_
_citation_id
_citation_journal_full
_citation_year
_citation_journal_volume
_citation_page_first
_citation_page_last
_citation_journal_id_ASTM
primary 'Inorganic Chemistry' 2008 47 4445 4447 INOCAJ
loop_
_citation_author_citation_id
_citation_author_name
primary 'Lin Chiahui'
primary 'Chen Chihshan'
primary 'Shiryaev, A.A.'
primary 'Zubavichus, Y.V.'
primary 'Lii Kwanghwa'
_cell_length_a 9.8014(3)
_cell_length_b 9.8014(3)
_cell_length_c 8.4198(4)
_cell_angle_alpha 90.
_cell_angle_beta 90.
_cell_angle_gamma 120.
_cell_volume 700.5
_cell_formula_units_Z 2
_space_group_name_H-M_alt 'P -6 2 c'
_space_group_IT_number 190
loop_
_space_group_symop_id
_space_group_symop_operation_xyz
1 '-x, -x+y, -z'
2 'x-y, -y, -z'
3 'y, x, -z'
4 '-x, -x+y, z+1/2'
5 'x-y, -y, z+1/2'
6 'y, x, z+1/2'
7 '-x+y, -x, -z+1/2'
8 '-y, x-y, -z+1/2'
9 'x, y, -z+1/2'
10 '-x+y, -x, z'
11 '-y, x-y, z'
12 'x, y, z'
loop_
_atom_type_symbol
_atom_type_oxidation_number
Rb1+ 1
U5+ 5
Ge4+ 4
O2- -2
loop_
_atom_site_label
_atom_site_type_symbol
_atom_site_symmetry_multiplicity
_atom_site_Wyckoff_symbol
_atom_site_fract_x
_atom_site_fract_y
_atom_site_fract_z
_atom_site_U_iso_or_equiv
_atom_site_occupancy
Rb1 Rb1+ 6 h -0.61173(16) -0.58365(16) 0.25 0.0211(3) 1
U1 U5+ 6 g -0.23864(4) -0.23864(4) 0. 0.00675(14) 1
Ge1 Ge4+ 4 f -0.6667 -0.3333 -0.04614(17) 0.0119(3) 1
O1 O2- 6 h -0.2512(10) -0.2432(10) -0.25 0.0179(18) 1
O2 O2- 12 i -0.4901(8) -0.3139(9) 0.0183(6) 0.0237(15) 1
O3 O2- 6 g 0. -0.1842(10) 0. 0.016(2) 1
O4 O2- 2 d -0.6667 -0.3333 -0.25 0.041(5) 1
loop_
_atom_site_aniso_label
_atom_site_aniso_type_symbol
_atom_site_aniso_U_11
_atom_site_aniso_U_22
_atom_site_aniso_U_33
_atom_site_aniso_U_12
_atom_site_aniso_U_13
_atom_site_aniso_U_23
Rb1 Rb1+ 0.0204(6) 0.0228(7) 0.0180(6) 0.0091(6) 0. 0.
U1 U5+ 0.00686(17) 0.00686(17) 0.00670(19) 0.00357(16) -0.00004(7) 0.00004(7)
Ge1 Ge4+ 0.0111(5) 0.0111(5) 0.0136(6) 0.0055(2) 0. 0.
O1 O2- 0.019(4) 0.022(5) 0.012(4) 0.009(4) 0. 0.
O2 O2- 0.011(3) 0.024(4) 0.041(4) 0.012(3) -0.003(3) 0.001(3)
O3 O2- 0.017(5) 0.008(3) 0.028(5) 0.009(3) 0.001(3) 0.0003(17)
O4 O2- 0.057(8) 0.057(8) 0.009(6) 0.028(4) 0. 0.
#End of TTdata_249678-ICSD
#
