(C) 2022 by FIZ Karlsruhe - Leibniz Institute for Information Infrastructure.  All rights reserved.
data_73345-ICSD
_database_code_ICSD 73345
_audit_creation_date 1994-06-30
_chemical_name_common 'Potassium oxovanadium phosphate hydrate (0.5/1/1/1.5)'
_chemical_formula_structural 'K0.5 (V O) (P O4) (H2 O)1.5'
_chemical_formula_sum 'H3 K0.5 O6.5 P1 V1'
_exptl_crystal_density_diffrn 2.75
_diffrn_ambient_temperature 297.
_citation_title

;
Hydrothermal synthesis and structural characterization of two layered
mixed-valence vanadyl phosphate hydrates Na0.50 V O P O4 * 2(H2 O) and K0.50 V
O P O4 * 1.5(H2 O)
;
loop_
_citation_id
_citation_journal_full
_citation_year
_citation_journal_volume
_citation_page_first
_citation_page_last
_citation_journal_id_ASTM
primary 'Inorganic Chemistry' 1991 30 3496 3499 INOCAJ
loop_
_citation_author_citation_id
_citation_author_name
primary 'Wang, S.-L.'
primary 'Kang, H.-Y.'
primary 'Cheng, C.-Y.'
primary 'Lii, K.-H.'
_cell_length_a 6.282(2)
_cell_length_b 6.285(1)
_cell_length_c 6.679(2)
_cell_angle_alpha 89.11(2)
_cell_angle_beta 72.84(2)
_cell_angle_gamma 89.98(2)
_cell_volume 251.93
_cell_formula_units_Z 2
_space_group_name_H-M_alt 'P -1'
_space_group_IT_number 2
loop_
_space_group_symop_id
_space_group_symop_operation_xyz
1 '-x, -y, -z'
2 'x, y, z'
loop_
_atom_type_symbol
_atom_type_oxidation_number
K1+ 1
V5+ 4.5
P5+ 5
O2- -2
H1+ 1
O2- -2
H1+ 1
loop_
_atom_site_label
_atom_site_type_symbol
_atom_site_symmetry_multiplicity
_atom_site_Wyckoff_symbol
_atom_site_fract_x
_atom_site_fract_y
_atom_site_fract_z
_atom_site_U_iso_or_equiv
_atom_site_occupancy
K1 K1+ 1 a 0 0 0 0.0687(7) 1.
V1 V5+ 2 i 0.28783(7) 0.75387(7) 0.40273(8) 0.0069(2) 1.
P1 P5+ 2 i 0.2497(1) 0.2502(1) 0.4955(1) 0.0085(3) 1.
O1 O2- 2 i 0.2876(4) 0.0615(3) 0.3452(4) 0.0137(7) 1.
O2 O2- 2 i 0.6090(3) 0.7685(3) 0.3519(4) 0.0146(7) 1.
O3 O2- 2 i 0.3118(4) 0.4480(3) 0.3531(4) 0.0176(7) 1.
O4 O2- 2 i -.0085(3) 0.7439(4) 0.3623(4) 0.0167(7) 1.
O5 O2- 2 i 0.3850(4) 0.7608(4) 0.0398(4) 0.0262(9) 1.
H1 H1+ 2 i 0.4924 0.7205 -.0175 0.08(9) 1.
H2 H1+ 2 i 0.2852 0.6425 0.0225 0.08(9) 1.
O6 O2- 2 i 0.2130(4) 0.7579(4) 0.6513(4) 0.0195(8) 1.
O7 O2- 1 c 0 0.5 0 0.063(2) 1.
#End of TTdata_73345-ICSD
#
