(C) 2022 by FIZ Karlsruhe - Leibniz Institute for Information Infrastructure.  All rights reserved.
data_417727-ICSD
_database_code_ICSD 417727
_audit_creation_date 2008-08-01
_audit_update_record 2011-02-01
_chemical_name_common
'Lithium pentakis(monooxomolybdate(V)) tetrakis(diphosphate)'
_chemical_formula_structural 'Li (Mo O)5 (P2 O7)4'
_chemical_formula_sum 'Li1 Mo5 O33 P8'
_chemical_name_structure_type Li(MoO)5(P2O7)4
_exptl_crystal_density_diffrn 3.31
_diffrn_ambient_temperature 293.
_citation_title

;
A large series of isotypic Mo(V) diphosphates with a tunnel structure from A
(Mo O)10 (P2 O7)8 with A = Ba, Sr, Ca, Cd, Pb, to A (Mo O)5 (P2 O7)4 with A =
Ag, Li, Na, K
;
loop_
_citation_id
_citation_journal_full
_citation_year
_citation_journal_volume
_citation_page_first
_citation_page_last
_citation_journal_id_ASTM
primary 'Journal of Solid State Chemistry' 2007 180 2044 2052 JSSCBI
loop_
_citation_author_citation_id
_citation_author_name
primary 'Leclaire, A.'
primary 'Caignaert, V.'
primary 'Raveau, B.'
_cell_length_a 31.98930(10)
_cell_length_b 4.85010(10)
_cell_length_c 22.74890(10)
_cell_angle_alpha 90
_cell_angle_beta 134.1700(10)
_cell_angle_gamma 90
_cell_volume 2531.64
_cell_formula_units_Z 4
_space_group_name_H-M_alt 'C 1 2/c 1'
_space_group_IT_number 15
loop_
_space_group_symop_id
_space_group_symop_operation_xyz
1 'x, -y, z+1/2'
2 '-x, -y, -z'
3 '-x, y, -z+1/2'
4 'x, y, z'
5 'x+1/2, -y+1/2, z+1/2'
6 '-x+1/2, -y+1/2, -z'
7 '-x+1/2, y+1/2, -z+1/2'
8 'x+1/2, y+1/2, z'
loop_
_atom_type_symbol
_atom_type_oxidation_number
Mo5+ 5
P5+ 5
Li1+ 1
O2- -2
loop_
_atom_site_label
_atom_site_type_symbol
_atom_site_symmetry_multiplicity
_atom_site_Wyckoff_symbol
_atom_site_fract_x
_atom_site_fract_y
_atom_site_fract_z
_atom_site_U_iso_or_equiv
_atom_site_occupancy
Mo1 Mo5+ 8 f 0.092798(16) 0.85076(8) 0.03857(3) 0.0081(2) 1
Mo2 Mo5+ 8 f 0.196168(16) 0.11234(7) 0.35344(2) 0.0082(2) 1
Mo3 Mo5+ 4 e 0 0.75349(11) 0.25 0.0088(3) 0.9711(7)
Mo4 Mo5+ 4 e 0 0.500(4) 0.25 0.0088(3) 0.0289(7)
P1 P5+ 8 f 0.09885(5) 0.6018(2) 0.24645(7) 0.0080(7) 1
P2 P5+ 8 f 0.12820(5) 0.3520(2) 0.16524(7) 0.0087(7) 1
P3 P5+ 8 f 0.10183(5) 0.3515(2) -0.04995(7) 0.0081(7) 1
P4 P5+ 8 f 0.21257(5) 0.1204(2) 0.09013(8) 0.0104(7) 1
Li1 Li1+ 8 f 0.2635(10) 0.191(5) 0.2930(17) 0.05(2) 0.5
O1 O2- 8 f 0.02773(15) 0.7295(7) -0.0129(3) 0.026(3) 1
O2 O2- 8 f 0.09419(14) 1.1118(6) 0.1077(2) 0.016(2) 1
O3 O2- 8 f 0.14087(15) 0.5753(6) 0.1323(2) 0.018(3) 1
O4 O2- 8 f 0.10926(14) 0.6434(6) -0.0208(2) 0.017(2) 1
O5 O2- 8 f 0.07147(13) 1.1710(6) -0.0362(2) 0.013(2) 1
O6 O2- 8 f 0.18317(13) 1.0107(7) 0.1145(2) 0.014(2) 1
O7 O2- 8 f 0.21000(17) -0.0130(7) 0.4328(2) 0.025(3) 1
O8 O2- 8 f 0.25618(18) 0.4078(8) 0.4151(3) 0.038(3) 1
O9 O2- 8 f 0.12731(17) -0.1215(7) 0.2651(2) 0.027(3) 1
O10 O2- 8 f 0.13608(15) 0.4006(7) 0.3157(2) 0.021(2) 1
O11 O2- 8 f 0.24884(18) -0.1396(8) 0.3570(2) 0.033(3) 1
O12 O2- 8 f 0.18384(13) 0.2748(6) 0.2508(2) 0.013(2) 1
O13 O2- 4 e 0 1.0977(2) 0.25 0.025(4) 0.9711(7)
O14 O2- 4 e 0 0.156(4) 0.25 0.025(4) 0.0289(7)
O15 O2- 8 f 0.03890(13) 0.6344(7) 0.2152(2) 0.015(2) 1
O16 O2- 8 f 0.07347(13) 0.6474(6) 0.3622(2) 0.013(2) 1
O17 O2- 8 f 0.08434(13) 0.4824(7) 0.1692(2) 0.013(2) 1
O18 O2- 8 f 0.16478(13) 0.2317(6) -0.0012(2) 0.015(2) 1
loop_
_atom_site_aniso_label
_atom_site_aniso_type_symbol
_atom_site_aniso_U_11
_atom_site_aniso_U_22
_atom_site_aniso_U_33
_atom_site_aniso_U_12
_atom_site_aniso_U_13
_atom_site_aniso_U_23
Mo1 Mo5+ 0.01172(18) 0.00385(17) 0.01048(19) -0.00046(13) 0.00833(16)
-0.00050(15)
Mo2 Mo5+ 0.01027(17) 0.00499(17) 0.00913(19) 0.00009(13) 0.00663(16) 0.00076(15)
Mo3 Mo5+ 0.0083(3) 0.0100(3) 0.0087(3) 0 0.0062(2) 0
Mo4 Mo5+ 0.0083(3) 0.0100(3) 0.0087(3) 0 0.0062(2) 0
P1 P5+ 0.0094(5) 0.0050(5) 0.0101(6) -0.0002(4) 0.0070(5) -0.0017(4)
P2 P5+ 0.0132(5) 0.0050(5) 0.0102(5) 0.0018(4) 0.0090(5) 0.0019(4)
P3 P5+ 0.0105(5) 0.0062(5) 0.0075(5) 0.0025(4) 0.0062(5) 0.0014(4)
P4 P5+ 0.0088(5) 0.0113(6) 0.0106(6) 0.0005(4) 0.0066(5) 0.0000(5)
Li1 Li1+ 0.044(14) 0.049(14) 0.057(18) -0.016(11) 0.034(14) -0.026(13)
O1 O2- 0.0201(19) 0.025(2) 0.033(2) -0.0088(15) 0.0179(19) -0.0109(17)
O2 O2- 0.0184(17) 0.0104(16) 0.0180(18) 0.0040(13) 0.0123(16) -0.0041(14)
O3 O2- 0.0286(19) 0.0081(16) 0.027(2) 0.0047(13) 0.0232(18) 0.0087(14)
O4 O2- 0.0240(18) 0.0100(15) 0.023(2) -0.0029(13) 0.0186(17) -0.0038(14)
O5 O2- 0.0162(16) 0.0089(15) 0.0159(18) -0.0018(12) 0.0118(15) 0.0009(13)
O6 O2- 0.0159(17) 0.0153(16) 0.0134(18) -0.0054(13) 0.0107(16) -0.0034(14)
O7 O2- 0.039(2) 0.0219(19) 0.023(2) 0.0022(16) 0.025(2) 0.0045(16)
O8 O2- 0.040(2) 0.057(3) 0.023(2) -0.038(2) 0.023(2) -0.018(2)
O9 O2- 0.041(2) 0.0223(19) 0.021(2) -0.0212(16) 0.023(2) -0.0102(16)
O10 O2- 0.032(2) 0.0214(19) 0.0167(19) 0.0157(15) 0.0188(18) 0.0059(15)
O11 O2- 0.039(2) 0.038(2) 0.019(2) 0.0301(18) 0.019(2) 0.0115(18)
O12 O2- 0.0113(15) 0.0151(16) 0.0105(17) 0.0010(12) 0.0072(15) 0.0014(13)
O13 O2- 0.025(3) 0.015(3) 0.030(3) 0 0.017(3) 0
O14 O2- 0.025(3) 0.015(3) 0.030(3) 0 0.017(3) 0
O15 O2- 0.0109(15) 0.0234(17) 0.0128(17) 0.0002(13) 0.0087(14) 0.0009(14)
O16 O2- 0.0120(15) 0.0191(16) 0.0092(16) 0.0049(12) 0.0076(14) 0.0044(13)
O17 O2- 0.0130(16) 0.0196(17) 0.0075(17) 0.0038(12) 0.0073(14) 0.0009(13)
O18 O2- 0.0147(17) 0.0168(17) 0.0134(17) 0.0046(13) 0.0094(15) 0.0047(14)
#End of TTdata_417727-ICSD
#
