(C) 2022 by FIZ Karlsruhe - Leibniz Institute for Information Infrastructure.  All rights reserved.
data_260106-ICSD
_database_code_ICSD 260106
_audit_creation_date 2009-02-01
_chemical_name_common 'Dirubidium diniobate disilicate'
_chemical_formula_structural 'Rb2 (Nb2 O4) (Si2 O6)'
_chemical_formula_sum 'Nb2 O10 Rb2 Si2'
_exptl_crystal_density_diffrn 3.74
_diffrn_ambient_temperature 296.
_citation_title

;
Synthesis and characterization of open - framework niobium silicates: Rb2 (Nb2
O4) (Si2 O6) * H2 O and the dehydrated phase Rb2 (Nb2 O4) (Si2 O6)
;
loop_
_citation_id
_citation_journal_full
_citation_year
_citation_journal_volume
_citation_page_first
_citation_page_last
_citation_journal_id_ASTM
primary 'Inorganic Chemistry' 2008 47 11223 11227 INOCAJ
loop_
_citation_author_citation_id
_citation_author_name
primary 'Tasi Jhenming'
primary 'Tu Potao'
primary 'Chan Tingshan'
primary 'Lii Kwanghwa'
_cell_length_a 10.2395(6)
_cell_length_b 10.2395(6)
_cell_length_c 38.832(3)
_cell_angle_alpha 90.
_cell_angle_beta 90.
_cell_angle_gamma 90.
_cell_volume 4071.43
_cell_formula_units_Z 16
_space_group_name_H-M_alt 'I 41'
_space_group_IT_number 80
loop_
_space_group_symop_id
_space_group_symop_operation_xyz
1 'y, -x+1/2, z+1/4'
2 '-y, x+1/2, z+1/4'
3 '-x, -y, z'
4 'x, y, z'
5 'y+1/2, -x, z+3/4'
6 '-y+1/2, x, z+3/4'
7 '-x+1/2, -y+1/2, z+1/2'
8 'x+1/2, y+1/2, z+1/2'
loop_
_atom_type_symbol
_atom_type_oxidation_number
Rb1+ 1
Nb5+ 5
Si4+ 4
O2- -2
loop_
_atom_site_label
_atom_site_type_symbol
_atom_site_symmetry_multiplicity
_atom_site_Wyckoff_symbol
_atom_site_fract_x
_atom_site_fract_y
_atom_site_fract_z
_atom_site_U_iso_or_equiv
_atom_site_occupancy
Rb1 Rb1+ 4 a 0.5 0. 0.25708(5) 0.0233(3) 1
Rb2 Rb1+ 4 a 1. 0.5 0.26006(5) 0.0407(5) 1
Rb3 Rb1+ 4 a 1. 0. 0.14940(5) 0.0402(5) 1
Rb4 Rb1+ 4 a 0.5 0.5 0.15237(5) 0.0231(3) 1
Rb5 Rb1+ 8 b 0.26289(8) 0.24999(9) 0.20477(6) 0.03209(14) 1
Rb6 Rb1+ 8 b 0.77567(15) 0.2054(3) 0.32880(9) 0.0576(5) 0.5
Rb7 Rb1+ 8 b 0.7063(3) 0.27607(15) 0.33033(9) 0.0590(5) 0.5
Nb1 Nb5+ 8 b 0.61714(8) 0.13366(8) 0.168907(17) 0.00974(19) 1
Nb2 Nb5+ 8 b 0.86574(8) 0.38257(8) 0.172863(17) 0.01001(19) 1
Nb3 Nb5+ 8 b 0.86515(8) 0.11787(8) 0.236614(17) 0.01027(19) 1
Nb4 Nb5+ 8 b 0.61755(8) 0.36580(8) 0.240591(17) 0.01012(19) 1
Si1 Si4+ 8 b 0.1352(2) 0.1508(2) 0.28754(7) 0.0059(4) 1
Si2 Si4+ 8 b 0.3506(2) 0.3659(2) 0.29075(7) 0.0057(4) 1
Si3 Si4+ 8 b 1.1347(2) 0.3495(2) 0.12217(7) 0.0067(4) 1
Si4 Si4+ 8 b 1.3507(2) 0.1336(2) 0.11887(7) 0.0068(5) 1
O1 O2- 8 b 0.1413(3) 0.1197(3) 0.32801(17) 0.0143(8) 1
O2 O2- 8 b 0.2038(4) 0.0346(4) 0.26657(11) 0.0111(9) 1
O3 O2- 8 b -0.0121(4) 0.1778(4) 0.27471(12) 0.0116(9) 1
O4 O2- 8 b 0.2167(4) 0.2877(4) 0.28141(12) 0.0125(9) 1
O5 O2- 8 b 0.3802(3) 0.3588(3) 0.3312(2) 0.0171(8) 1
O6 O2- 8 b 0.4706(4) 0.2982(4) 0.27084(11) 0.0101(9) 1
O7 O2- 8 b 0.3247(4) 0.5160(4) 0.27923(12) 0.0117(9) 1
O8 O2- 8 b 0.9882(4) 0.3219(4) 0.13485(11) 0.0103(9) 1
O9 O2- 8 b 1.2041(4) 0.4664(4) 0.14317(12) 0.0119(9) 1
O10 O2- 8 b 1.2165(4) 0.2119(4) 0.12804(12) 0.0137(9) 1
O11 O2- 8 b 1.3247(4) -0.0156(4) 0.13022(11) 0.0103(9) 1
O12 O2- 8 b 1.4713(4) 0.2022(4) 0.13855(11) 0.0107(9) 1
O13 O2- 4 a 0.5 0. 0.1844(3) 0.0109(18) 1
O14 O2- 8 b 0.7495(6) 0.0628(4) 0.19956(14) 0.0107(11) 1
O15 O2- 8 b 0.7342(4) 0.2689(5) 0.15198(19) 0.0092(11) 1
O16 O2- 8 b 0.5561(4) 0.2508(6) 0.20418(16) 0.0060(8) 1
O17 O2- 4 a 1. 0.5 0.1879(3) 0.0100(18) 1
O18 O2- 8 b 0.9294(4) 0.2489(6) 0.20414(16) 0.0075(8) 1
O19 O2- 8 b 0.7471(6) 0.4372(5) 0.20908(17) 0.0168(12) 1
O20 O2- 8 b 0.7338(4) 0.2302(5) 0.25739(18) 0.0099(11) 1
O21 O2- 4 a 1. 0. 0.2204(3) 0.0109(18) 1
O22 O2- 4 a 0.5 0.5 0.2241(3) 0.0134(19) 1
loop_
_atom_site_aniso_label
_atom_site_aniso_type_symbol
_atom_site_aniso_U_11
_atom_site_aniso_U_22
_atom_site_aniso_U_33
_atom_site_aniso_U_12
_atom_site_aniso_U_13
_atom_site_aniso_U_23
Rb1 Rb1+ 0.0252(7) 0.0277(7) 0.0171(8) -0.0017(6) 0. 0.
Rb2 Rb1+ 0.0505(10) 0.0549(10) 0.0166(9) 0.0182(9) 0. 0.
Rb3 Rb1+ 0.0495(9) 0.0548(10) 0.0163(9) -0.0204(8) 0. 0.
Rb4 Rb1+ 0.0243(6) 0.0268(7) 0.0181(8) -0.0001(6) 0. 0.
Rb5 Rb1+ 0.0345(5) 0.0471(6) 0.0147(2) -0.0006(6) -0.0003(4) -0.0023(3)
Rb6 Rb1+ 0.0403(8) 0.1214(16) 0.0111(7) -0.0166(9) -0.0017(10) 0.0049(14)
Rb7 Rb1+ 0.1260(17) 0.0381(8) 0.0129(7) -0.0152(9) -0.0072(15) 0.0019(10)
Nb1 Nb5+ 0.0090(3) 0.0106(3) 0.0096(4) 0.0024(2) -0.0032(2) -0.0043(2)
Nb2 Nb5+ 0.0103(3) 0.0092(3) 0.0105(4) 0.0019(2) 0.0039(2) 0.0037(2)
Nb3 Nb5+ 0.0096(3) 0.0106(3) 0.0106(4) -0.0019(2) -0.0043(2) 0.0041(2)
Nb4 Nb5+ 0.0104(3) 0.0105(3) 0.0094(4) -0.0028(2) 0.0035(2) -0.0043(2)
Si1 Si4+ 0.0061(8) 0.0063(8) 0.0053(11) -0.0008(6) 0.0003(6) -0.0016(7)
Si2 Si4+ 0.0066(8) 0.0056(8) 0.0050(10) -0.0016(6) 0.0017(7) -0.0004(7)
Si3 Si4+ 0.0072(8) 0.0082(8) 0.0046(11) 0.0006(6) 0.0011(7) -0.0007(7)
Si4 Si4+ 0.0076(8) 0.0063(8) 0.0066(11) 0.0013(6) -0.0012(7) -0.0001(7)
O1 O2- 0.0167(15) 0.0244(17) 0.0019(19) 0.0001(13) 0.0008(19) -0.0007(19)
O2 O2- 0.010(2) 0.011(2) 0.013(2) 0.0012(17) -0.0010(16) -0.0034(16)
O3 O2- 0.012(2) 0.012(2) 0.011(2) 0.0043(16) -0.0048(16) 0.0005(16)
O4 O2- 0.0125(19) 0.0081(18) 0.017(2) -0.0057(16) -0.0014(16) 0.0010(16)
O6 O2- 0.011(2) 0.0083(19) 0.011(2) 0.0000(16) 0.0081(16) -0.0029(15)
O7 O2- 0.013(2) 0.010(2) 0.012(2) -0.0021(16) 0.0017(17) -0.0005(16)
O8 O2- 0.009(2) 0.012(2) 0.010(2) -0.0026(16) 0.0054(15) -0.0026(16)
O9 O2- 0.0083(19) 0.015(2) 0.012(2) -0.0023(17) 0.0029(16) -0.0025(17)
O10 O2- 0.016(2) 0.0095(18) 0.015(2) 0.0051(17) 0.0027(16) -0.0013(16)
O11 O2- 0.013(2) 0.0065(19) 0.012(2) 0.0014(16) -0.0033(16) 0.0011(15)
O12 O2- 0.013(2) 0.0078(19) 0.011(2) -0.0001(16) -0.0072(16) -0.0006(16)
O13 O2- 0.013(4) 0.016(4) 0.004(4) -0.002(3) 0. 0.
O14 O2- 0.018(2) 0.0068(19) 0.007(3) 0.0029(19) -0.0017(19) 0.0015(17)
O15 O2- 0.0087(19) 0.0098(18) 0.009(3) -0.0053(16) -0.002(2) 0.003(2)
O16 O2- 0.0080(18) 0.0053(18) 0.0048(17) 0.0024(18) -0.0006(17) -0.0043(15)
O17 O2- 0.010(4) 0.013(4) 0.007(4) -0.001(3) 0. 0.
O18 O2- 0.013(2) 0.0021(18) 0.0076(18) 0.0010(19) -0.0008(18) 0.0023(15)
O19 O2- 0.019(2) 0.010(2) 0.022(3) 0.001(2) 0.007(2) 0.001(2)
O20 O2- 0.0096(19) 0.0110(18) 0.009(3) 0.0016(17) -0.002(2) 0.000(2)
O21 O2- 0.011(4) 0.013(4) 0.009(5) 0.011(3) 0. 0.
O22 O2- 0.014(4) 0.012(4) 0.014(5) 0.007(3) 0. 0.
#End of TTdata_260106-ICSD
#
