(C) 2022 by FIZ Karlsruhe - Leibniz Institute for Information Infrastructure.  All rights reserved.
data_426265-ICSD
_database_code_ICSD 426265
_audit_creation_date 2015-02-01
_chemical_name_common 'Pentasodium heptadecaoxo-hydroxo-pentauranate(V,VI)'
_chemical_formula_structural 'Na5 (U5 O17 (O H))'
_chemical_formula_sum 'H1 Na5 O18 U5'
_exptl_crystal_density_diffrn 6.49
_diffrn_ambient_temperature 296.
_citation_title

;
Mixed-valence uranium(V,VI) and uranyl oxyhydroxides synthesized under
high-temperature, high-pressure hydrothermal conditions: Na5[U5O16(OH)2] and
Na5[U5O17(OH)]
;
loop_
_citation_id
_citation_journal_full
_citation_year
_citation_journal_volume
_citation_page_first
_citation_page_last
_citation_journal_id_ASTM
primary 'Inorganic Chemistry' 2013 52 9172 9174 INOCAJ
loop_
_citation_author_citation_id
_citation_author_name
primary 'Liu, Hsin-Kuang'
primary 'Lii, Kwang-Hwa'
_cell_length_a 6.9369(4)
_cell_length_b 19.8440(13)
_cell_length_c 12.7132(9)
_cell_angle_alpha 90.
_cell_angle_beta 111.116(4)
_cell_angle_gamma 90.
_cell_volume 1632.53
_cell_formula_units_Z 4
_space_group_name_H-M_alt 'P 1 21/c 1'
_space_group_IT_number 14
loop_
_space_group_symop_id
_space_group_symop_operation_xyz
1 'x, -y+1/2, z+1/2'
2 '-x, -y, -z'
3 '-x, y+1/2, -z+1/2'
4 'x, y, z'
loop_
_atom_type_symbol
_atom_type_oxidation_number
Na1+ 1
U6+ 6
O2- -2
H1+ 1
loop_
_atom_site_label
_atom_site_type_symbol
_atom_site_symmetry_multiplicity
_atom_site_Wyckoff_symbol
_atom_site_fract_x
_atom_site_fract_y
_atom_site_fract_z
_atom_site_U_iso_or_equiv
_atom_site_occupancy
Na1 Na1+ 4 e 0.2352(11) 0.0501(4) 0.4995(7) 0.023(2) 1
Na2 Na1+ 4 e 0.7429(12) 0.1515(4) -0.0005(10) 0.027(3) 1
Na3 Na1+ 4 e 0.2565(11) 0.0457(4) 0.0062(7) 0.018(2) 1
Na4 Na1+ 4 e 0.2534(14) 0.2526(4) 0.4934(9) 0.035(3) 1
Na5 Na1+ 4 e 0.7732(15) 0.1420(4) 0.5102(10) 0.039(3) 1
U1 U6+ 4 e 0.78737(11) 0.25917(4) 0.24933(8) 0.0110(2) 1
U2 U6+ 4 e 1.20932(11) 0.13945(4) 0.24850(7) 0.0083(2) 1
U3 U6+ 4 e 0.71003(10) 0.44976(3) 0.24790(6) 0.0070(2) 1
U4 U6+ 4 e 0.74576(9) 0.05118(3) 0.25223(6) 0.0082(2) 1
U5 U6+ 4 e 1.26110(10) 0.34560(3) 0.25311(7) 0.0105(2) 1
O1 O2- 4 e 0.678(2) 0.2598(7) 0.0954(15) 0.034(4) 1
O2 O2- 4 e 0.882(3) 0.2535(7) 0.4079(17) 0.040(5) 1
O3 O2- 4 e 0.8683(18) 0.1506(5) 0.2370(12) 0.013(3) 1
O4 O2- 4 e 1.127(2) 0.2493(6) 0.2660(13) 0.020(3) 1
O5 O2- 4 e 0.485(4) 0.2018(12) 0.226(2) 0.119(9) 1
O6 O2- 4 e 0.5884(19) 0.3420(6) 0.2656(13) 0.022(3) 1
O7 O2- 4 e 0.9361(18) 0.3699(6) 0.2368(12) 0.016(3) 1
O8 O2- 4 e 1.322(2) 0.1396(7) 0.4043(15) 0.032(4) 1
O9 O2- 4 e 1.111(2) 0.1415(7) 0.0940(15) 0.036(4) 1
O10 O2- 4 e 1.0660(17) 0.0308(6) 0.2630(11) 0.018(3) 1
O11 O2- 4 e 1.4211(18) 0.0574(6) 0.2408(12) 0.023(3) 1
O12 O2- 4 e 0.6016(19) 0.4484(6) 0.0913(12) 0.019(3) 1
O13 O2- 4 e 0.826(2) 0.4512(6) 0.4053(13) 0.023(3) 1
O14 O2- 4 e 0.3525(18) 0.4486(6) 0.2341(11) 0.016(3) 1
O15 O2- 4 e 0.8454(19) 0.0585(6) 0.4123(12) 0.016(3) 1
O16 O2- 4 e 0.648(2) 0.0441(6) 0.0929(13) 0.024(4) 1
O17 O2- 4 e 1.167(2) 0.3389(7) 0.0977(14) 0.029(4) 1
O18 O2- 4 e 1.356(2) 0.3509(6) 0.4138(15) 0.026(4) 1
loop_
_atom_site_aniso_label
_atom_site_aniso_type_symbol
_atom_site_aniso_U_11
_atom_site_aniso_U_22
_atom_site_aniso_U_33
_atom_site_aniso_U_12
_atom_site_aniso_U_13
_atom_site_aniso_U_23
Na1 Na1+ 0.018(4) 0.027(6) 0.019(6) 0.006(3) 0.002(4) 0.009(4)
Na2 Na1+ 0.032(5) 0.017(5) 0.032(7) 0.009(3) 0.012(5) 0.001(4)
Na3 Na1+ 0.028(5) 0.005(5) 0.022(6) 0.004(3) 0.011(4) -0.002(4)
Na4 Na1+ 0.051(6) 0.029(6) 0.028(8) -0.002(4) 0.015(6) 0.007(4)
Na5 Na1+ 0.067(7) 0.004(5) 0.061(10) 0.003(4) 0.042(7) -0.008(5)
U1 U6+ 0.0115(4) 0.0080(4) 0.0169(6) 0.0052(3) 0.0093(4) 0.0006(3)
U2 U6+ 0.0081(4) 0.0057(4) 0.0131(5) 0.0014(3) 0.0063(3) -0.0002(3)
U3 U6+ 0.0049(3) 0.0056(4) 0.0129(5) -0.0006(3) 0.0060(3) 0.0007(4)
U4 U6+ 0.0073(3) 0.0072(4) 0.0126(5) -0.0029(3) 0.0066(3) 0.0000(4)
U5 U6+ 0.0084(4) 0.0087(4) 0.0167(6) -0.0040(3) 0.0075(4) -0.0012(4)
#End of TTdata_426265-ICSD
#
