(C) 2022 by FIZ Karlsruhe - Leibniz Institute for Information Infrastructure.  All rights reserved.
data_71150-ICSD
_database_code_ICSD 71150
_audit_creation_date 1993-01-06
_chemical_name_common
'Potassium oxovanadium(IV) hydrogenphosphate hydrate (2/2/3/1.1)'
_chemical_formula_structural 'K2 (V O)2 (H P O4)3 (H2 O)1.125'
_chemical_formula_sum 'H5.25 K2 O15.125 P3 V2'
_exptl_crystal_density_diffrn 2.75
_diffrn_ambient_temperature 296.
_citation_title

;
Hydrothermal synthesis and crystal structure of the vanadyl(IV) hydrogen
phosphate K2(VO)2P3O9(OH)3 . 1.125H2O
;
loop_
_citation_id
_citation_journal_full
_citation_year
_citation_journal_volume
_citation_page_first
_citation_page_last
_citation_journal_id_ASTM
primary 'Inorganic Chemistry' 1991 30 446 448 INOCAJ
loop_
_citation_author_citation_id
_citation_author_name
primary 'Lii, K.-H.'
primary 'Tsai, H.-J.'
_cell_length_a 6.404(2)
_cell_length_b 8.9512(9)
_cell_length_c 12.070(1)
_cell_angle_alpha 106.234(9)
_cell_angle_beta 98.61(2)
_cell_angle_gamma 103.33(2)
_cell_volume 629.2
_cell_formula_units_Z 2
_space_group_name_H-M_alt 'P -1'
_space_group_IT_number 2
loop_
_space_group_symop_id
_space_group_symop_operation_xyz
1 '-x, -y, -z'
2 'x, y, z'
loop_
_atom_type_symbol
_atom_type_oxidation_number
K1+ 1
V4+ 4
P5+ 5
O2- -2
H1+ 1
loop_
_atom_site_label
_atom_site_type_symbol
_atom_site_symmetry_multiplicity
_atom_site_Wyckoff_symbol
_atom_site_fract_x
_atom_site_fract_y
_atom_site_fract_z
_atom_site_U_iso_or_equiv
_atom_site_occupancy
K1 K1+ 2 i 0.75406(14) 0.76339(11) 0.08056(8) . 1.
K2 K1+ 2 i 0.95859(16) 0.20571(11) 0.33792(9) . 1.
V1 V4+ 2 i 0.16793(9) 0.86377(7) 0.36035(5) . 1.
V2 V4+ 2 i 0.50384(9) 0.55641(7) 0.76340(5) . 1.
P1 P5+ 2 i 0.67410(14) 0.82473(11) 0.39833(8) . 1.
P2 P5+ 2 i 0.00282(14) 0.48636(11) 0.20390(8) . 1.
P3 P5+ 2 i 0.32367(16) 0.03549(11) 0.14307(8) . 1.
O1 O2- 2 i 0.2763(4) 0.0968(3) 0.46713(21) . 1.
O2 O2- 2 i 0.8628(4) 0.8861(3) 0.34355(22) . 1.
O3 O2- 2 i 0.4798(4) 0.8749(3) 0.33849(3) . 1.
O4 O2- 2 i 0.3856(4) 0.3569(3) 0.62551(22) . 1.
O5 O2- 2 i 0.1915(4) 0.4380(3) 0.26193(23) . 1.
O6 O2- 2 i 0.0524(4) 0.6647(3) 0.21588(22) . 1.
O7 O2- 2 i 0.8013(4) 0.4179(3) 0.24532(23) . 1.
O8 O2- 2 i 0.0476(5) 0.6002(3) 0.93660(22) . 1.
O9 O2- 2 i 0.5418(5) 0.9945(4) 0.1793(3) . 1.
O10 O2- 2 i 0.6290(4) 0.7944(3) 0.86139(22) . 1.
O11 O2- 2 i 0.1706(4) 0.9911(3) 0.21806(23) . 1.
O12 O2- 2 i 0.7815(6) 0.0742(4) -.0092(3) . 1.
O13 O2- 2 i 0.8267(4) 0.2230(3) 0.54104(23) . 1.
O14 O2- 2 i 0.4841(4) 0.5140(3) 0.12858(23) . 1.
O15 O2- 2 i 0.5190(5) 0.3401(3) 0.39107(24) . 1.
O16 O2- 1 g 0 0.5 0.5 0.051(5) 0.251(7)
H1 H1+ 2 i 0.453 0.247 0.401 0.053(5) 1.
H2 H1+ 2 i 0.6 0.398 0.457 0.053(5) 1.
H3 H1+ 2 i 0.531 0.952 0.257 0.065(5) 1.
H4 H1+ 2 i 0.113 0.698 -.034 0.050(36) 1.
H5 H1+ 2 i 0.705 0.071 0.049 0.050(44) 1.
loop_
_atom_site_aniso_label
_atom_site_aniso_type_symbol
_atom_site_aniso_U_11
_atom_site_aniso_U_22
_atom_site_aniso_U_33
_atom_site_aniso_U_12
_atom_site_aniso_U_13
_atom_site_aniso_U_23
K1 K1+ 0.0208(4) 0.0289(5) 0.0188(4) 0.0058(4) 0.0005(3) 0.0080(4)
K2 K1+ 0.0315(5) 0.0256(5) 0.0323(5) 0.0121(4) 0.0125(4) 0.0176(4)
V1 V4+ 0.0059(3) 0.0107(3) 0.0105(3) 0.00216(23) 0.00120(22) 0.00172(24)
V2 V4+ 0.0061(3) 0.0088(3) 0.0110(3) 0.00200(22) 0.00134(22) 0.00299(23)
P1 P5+ 0.0057(4) 0.0095(4) 0.0098(4) 0.0018(3) 0.0002(3) 0.0013(3)
P2 P5+ 0.0064(4) 0.0095(4) 0.0116(4) 0.0023(3) 0.0016(3) 0.0020(4)
P3 P5+ 0.0156(5) 0.0102(5) 0.0128(5) 0.0038(4) 0.0038(4) 0.0029(4)
O1 O2- 0.0141(12) 0.0117(13) 0.0100(12) 0.0011(10) 0.0012(10) 0.0006(10)
O2 O2- 0.0084(12) 0.0147(13) 0.0168(13) 0.0049(10) 0.0029(10) 0.0053(10)
O3 O2- 0.0082(12) 0.0197(14) 0.0173(13) 0.0075(10) 0.0021(10) 0.0072(11)
O4 O2- 0.0161(13) 0.0111(13) 0.0142(13) 0.0017(10) 0.0006(10) 0.0003(10)
O5 O2- 0.0079(12) 0.0170(13) 0.0220(14) 0.0068(10) 0.0041(10) 0.0085(11)
O6 O2- 0.0139(13) 0.0104(13) 0.0143(13) 0.0005(10) -.0004(10) 0.0015(10)
O7 O2- 0.0072(12) 0.0168(13) 0.0229(14) 0.0055(10) 0.0044(10) 0.0084(11)
O8 O2- 0.0280(15) 0.0141(14) 0.0124(13) 0.0019(12) 0.0021(11) -.0010(11)
O9 O2- 0.0233(16) 0.0437(19) 0.0539(21) 0.0221(14) 0.0217(15) 0.0346(17)
O10 O2- 0.0172(13) 0.0114(13) 0.0158(13) 0.0012(10) 0.0000(11) 0.0030(11)
O11 O2- 0.0158(13) 0.0173(14) 0.0237(14) 0.0054(11) 0.0065(11) 0.0098(11)
O12 O2- 0.0642(23) 0.0198(16) 0.0142(15) -.0067(15) 0.0065(15) 0.0001(12)
O13 O2- 0.0197(14) 0.0259(15) 0.0169(14) 0.0089(12) 0.0043(11) 0.0103(12)
O14 O2- 0.0172(13) 0.0188(14) 0.0188(13) 0.0033(11) 0.0040(11) 0.0086(11)
O15 O2- 0.0253(15) 0.0261(16) 0.0197(14) 0.0010(12) 0.0013(12) 0.0125(12)
#End of TTdata_71150-ICSD
#
