(C) 2022 by FIZ Karlsruhe - Leibniz Institute for Information Infrastructure.  All rights reserved.
data_249677-ICSD
_database_code_ICSD 249677
_audit_creation_date 2009-02-01
_chemical_name_common 'Tripotassium hexaoxotriuranate(V) disilicate'
_chemical_formula_structural 'K3 (U3 O6) (Si2 O7)'
_chemical_formula_sum 'K3 O13 Si2 U3'
_chemical_name_structure_type K3Nb3O6Si2O7
_exptl_crystal_density_diffrn 5.54
_diffrn_ambient_temperature 293.
_citation_title

;
K3 (U3 O6) (Si2 O7) and Rb3 (U3 O6) (Ge2 O7): A pentavalent-uranium silicate
and germanate
;
loop_
_citation_id
_citation_journal_full
_citation_year
_citation_journal_volume
_citation_page_first
_citation_page_last
_citation_journal_id_ASTM
primary 'Inorganic Chemistry' 2008 47 4445 4447 INOCAJ
loop_
_citation_author_citation_id
_citation_author_name
primary 'Lin Chiahui'
primary 'Chen Chihshan'
primary 'Shiryaev, A.A.'
primary 'Zubavichus, Y.V.'
primary 'Lii Kwanghwa'
_cell_length_a 9.5389(5)
_cell_length_b 9.5389(5)
_cell_length_c 8.3389(9)
_cell_angle_alpha 90.
_cell_angle_beta 90.
_cell_angle_gamma 120.
_cell_volume 657.11
_cell_formula_units_Z 2
_space_group_name_H-M_alt 'P -6 2 c'
_space_group_IT_number 190
loop_
_space_group_symop_id
_space_group_symop_operation_xyz
1 '-x, -x+y, -z'
2 'x-y, -y, -z'
3 'y, x, -z'
4 '-x, -x+y, z+1/2'
5 'x-y, -y, z+1/2'
6 'y, x, z+1/2'
7 '-x+y, -x, -z+1/2'
8 '-y, x-y, -z+1/2'
9 'x, y, -z+1/2'
10 '-x+y, -x, z'
11 '-y, x-y, z'
12 'x, y, z'
loop_
_atom_type_symbol
_atom_type_oxidation_number
K1+ 1
U5+ 5
Si4+ 4
O2- -2
loop_
_atom_site_label
_atom_site_type_symbol
_atom_site_symmetry_multiplicity
_atom_site_Wyckoff_symbol
_atom_site_fract_x
_atom_site_fract_y
_atom_site_fract_z
_atom_site_U_iso_or_equiv
_atom_site_occupancy
K1 K1+ 6 h -0.6142(4) -0.5749(4) 0.25 0.0185(6) 1
U1 U5+ 6 g -0.24442(5) -0.24442(5) 0. 0.00519(18) 1
Si1 Si4+ 4 f -0.6667 -0.3333 -0.0573(4) 0.0078(7) 1
O1 O2- 6 h -0.2533(14) -0.2555(15) -0.25 0.037(3) 1
O2 O2- 12 i -0.5032(10) -0.3240(10) 0.0045(8) 0.031(2) 1
O3 O2- 6 g 0. -0.1896(14) 0. 0.023(3) 1
O4 O2- 2 d -0.6667 -0.3333 -0.25 0.060(6) 1
loop_
_atom_site_aniso_label
_atom_site_aniso_type_symbol
_atom_site_aniso_U_11
_atom_site_aniso_U_22
_atom_site_aniso_U_33
_atom_site_aniso_U_12
_atom_site_aniso_U_13
_atom_site_aniso_U_23
K1 K1+ 0.0147(14) 0.0214(17) 0.0193(13) 0.0089(13) 0. 0.
U1 U5+ 0.0043(2) 0.0043(2) 0.0067(2) 0.00199(18) -0.00019(8) 0.00019(8)
Si1 Si4+ 0.0078(11) 0.0078(11) 0.0080(14) 0.0039(5) 0. 0.
O1 O2- 0.041(8) 0.048(8) 0.017(5) 0.019(7) 0. 0.
O2 O2- 0.016(5) 0.019(4) 0.065(5) 0.013(4) 0.014(3) 0.010(3)
O3 O2- 0.012(5) 0.013(5) 0.045(7) 0.006(3) -0.004(4) -0.002(2)
O4 O2- 0.080(11) 0.080(11) 0.021(9) 0.040(5) 0. 0.
#End of TTdata_249677-ICSD
#
