(C) 2022 by FIZ Karlsruhe - Leibniz Institute for Information Infrastructure.  All rights reserved.
data_82391-ICSD
_database_code_ICSD 82391
_audit_creation_date 1997-11-10
_chemical_name_common 'Potassium tecto-gallodiarsenate'
_chemical_formula_structural 'K (Ga As2 O7)'
_chemical_formula_sum 'As2 Ga1 K1 O7'
_exptl_crystal_density_diffrn 4.06
_citation_title 'K Ga As2 O7'
loop_
_citation_id
_citation_journal_full
_citation_year
_citation_journal_volume
_citation_page_first
_citation_page_last
_citation_journal_id_ASTM
primary 'Acta Crystallographica, Section C: Crystal Structure Communications'
1996 52 2387 2389 ACSCEE
loop_
_citation_author_citation_id
_citation_author_name
primary 'Lin, K.-J.'
primary 'Lii, K.-H.'
_cell_length_a 6.271(1)
_cell_length_b 6.376(1)
_cell_length_c 8.169(1)
_cell_angle_alpha 96.45(1)
_cell_angle_beta 103.86(1)
_cell_angle_gamma 103.87(1)
_cell_volume 302.84
_cell_formula_units_Z 2
_space_group_name_H-M_alt 'P -1'
_space_group_IT_number 2
loop_
_space_group_symop_id
_space_group_symop_operation_xyz
1 '-x, -y, -z'
2 'x, y, z'
loop_
_atom_type_symbol
_atom_type_oxidation_number
K1+ 1
Ga3+ 3
As5+ 5
O2- -2
loop_
_atom_site_label
_atom_site_type_symbol
_atom_site_symmetry_multiplicity
_atom_site_Wyckoff_symbol
_atom_site_fract_x
_atom_site_fract_y
_atom_site_fract_z
_atom_site_B_iso_or_equiv
_atom_site_occupancy
K1 K1+ 1 g 0 0.5 0.5 . 1.
K2 K1+ 1 c 0 0.5 0 . 1.
Ga1 Ga3+ 2 i 0.37526(9) 0.19236(8) 0.72415(6) . 1.
As1 As5+ 2 i 0.17389(8) 0.96533(8) 0.30932(6) . 1.
As2 As5+ 2 i 0.51788(8) 0.25386(7) 0.16579(6) . 1.
O1 O2- 2 i -.0908(6) 0.8039(6) 0.2183(4) . 1.
O2 O2- 2 i 0.3361(6) 0.7913(6) 0.3308(5) . 1.
O3 O2- 2 i 0.2068(6) 0.1509(6) 0.4786(4) . 1.
O4 O2- 2 i 0.2337(6) 0.1146(6) 0.1486(4) . 1.
O5 O2- 2 i 0.4469(7) 0.7384(6) 0.0285(4) . 1.
O6 O2- 2 i 0.5714(7) 0.4979(6) 0.2852(5) . 1.
O7 O2- 2 i 0.6898(7) 0.1238(6) 0.2775(5) . 1.
loop_
_atom_site_aniso_label
_atom_site_aniso_type_symbol
_atom_site_aniso_U_11
_atom_site_aniso_U_22
_atom_site_aniso_U_33
_atom_site_aniso_U_12
_atom_site_aniso_U_13
_atom_site_aniso_U_23
K1 K1+ 0.0378(11) 0.0191(8) 0.0354(10) 0.0050(8) -.0166(8) 0.0018(7)
K2 K1+ 0.0386(13) 0.0586(16) 0.0914(22) -.0222(12) 0.0392(14) -.0518(16)
Ga1 Ga3+ 0.0126(3) 0.0105(3) 0.0119(3) 0.00181(19) 0.00157(19) 0.00214(18)
As1 As5+ 0.0118(3) 0.0114(3) 0.01138(25) 0.00137(18) 0.00189(17) 0.00198(16)
As2 As5+ 0.0132(3) 0.0100(3) 0.01083(24) 0.00133(18) 0.00151(17) 0.00239(16)
O1 O2- 0.0132(16) 0.0147(16) 0.0161(16) -.0015(13) 0.0035(13) -.0018(12)
O2 O2- 0.0171(17) 0.0163(16) 0.0188(17) 0.0075(14) 0.0057(14) 0.0061(13)
O3 O2- 0.0193(17) 0.0133(15) 0.0112(14) 0.0050(14) 0.0007(13) -.0013(12)
O4 O2- 0.0150(17) 0.0181(17) 0.0157(16) -.0002(14) 0.0025(13) 0.0077(13)
O5 O2- 0.0172(17) 0.0208(17) 0.0124(15) 0.0021(14) 0.0031(13) 0.0037(13)
O6 O2- 0.0257(20) 0.0100(15) 0.0180(17) 0.0029(14) 0.0023(15) 0.0005(13)
O7 O2- 0.0182(17) 0.0129(16) 0.0175(16) 0.0033(13) -.0010(13) 0.0042(13)
#End of TTdata_82391-ICSD
#
