(C) 2022 by FIZ Karlsruhe - Leibniz Institute for Information Infrastructure.  All rights reserved.
data_81840-ICSD
_database_code_ICSD 81840
_audit_creation_date 1999-11-30
_chemical_name_common 'Rubidium indium hydroxide phosphate'
_chemical_formula_structural 'Rb In (O H) (P O4)'
_chemical_formula_sum 'H1 In1 O5 P1 Rb1'
_exptl_crystal_density_diffrn 4.2
_diffrn_ambient_temperature 296.
_citation_title

;
Rb In (O H) P O4: an indium(III) phosphate containing spirals of
corner-sharing In O6 octahedra
;
loop_
_citation_id
_citation_journal_full
_citation_year
_citation_journal_volume
_citation_page_first
_citation_page_last
_citation_journal_id_ASTM
primary
'Journal of the Chemical Society, Dalton Transactions: Inorganic Chemistry ' 1996 1996 815 818 JCDTBI
loop_
_citation_author_citation_id
_citation_author_name
primary 'Lii, K.-H.'
_cell_length_a 9.400(2)
_cell_length_b 9.400(2)
_cell_length_c 11.179(4)
_cell_angle_alpha 90.
_cell_angle_beta 90.
_cell_angle_gamma 90.
_cell_volume 987.78
_cell_formula_units_Z 8
_space_group_name_H-M_alt 'P 43 21 2'
_space_group_IT_number 96
loop_
_space_group_symop_id
_space_group_symop_operation_xyz
1 'x+1/2, -y+1/2, -z+1/4'
2 '-x+1/2, y+1/2, -z+3/4'
3 '-y, -x, -z+1/2'
4 'y, x, -z'
5 'y+1/2, -x+1/2, z+1/4'
6 '-y+1/2, x+1/2, z+3/4'
7 '-x, -y, z+1/2'
8 'x, y, z'
loop_
_atom_type_symbol
_atom_type_oxidation_number
Rb1+ 1
In3+ 3
P5+ 5
O2- -2
H1+ 1
loop_
_atom_site_label
_atom_site_type_symbol
_atom_site_symmetry_multiplicity
_atom_site_Wyckoff_symbol
_atom_site_fract_x
_atom_site_fract_y
_atom_site_fract_z
_atom_site_B_iso_or_equiv
_atom_site_occupancy
Rb1 Rb1+ 8 b 0.4840(1) 0.1834(1) 0.9537(1) . 1.
In1 In3+ 4 a 0.09985(6) 0.09985(6) 0 . 1.
In2 In3+ 4 a 0.65276(6) 0.65276(6) 0 . 1.
P1 P5+ 8 b 0.3396(2) 0.8150(2) 0.9964(2) . 1.
O1 O2- 8 b 0.3279(7) 0.9978(6) 0.2609(6) . 1.
O2 O2- 8 b 0.2150(7) 0.2012(7) 0.1419(5) . 1.
O3 O2- 8 b 0.2787(6) 0.9628(6) 0.9683(5) . 1.
O4 O2- 8 b 0.2761(6) 0.7525(7) 0.1110(5) . 1.
O5 O2- 8 b 0.9546(6) 0.0143(6) 0.8758(5) . 1.
H1 H1+ 8 b 0.6199 0.4633 0.8453 . 1.
#End of TTdata_81840-ICSD
#
