(C) 2022 by FIZ Karlsruhe - Leibniz Institute for Information Infrastructure.  All rights reserved.
data_85794-ICSD
_database_code_ICSD 85794
_audit_creation_date 1999-11-30
_audit_update_record 2008-02-01
_chemical_name_common 'Ammonium iron iron(III) bis(phosphate(V))'
_chemical_formula_structural '(N H4) Fe2 (P O4)2'
_chemical_formula_sum 'H4 Fe2 N1 O8 P2'
_chemical_name_structure_type (NH4)Fe2(PO4)2
_exptl_crystal_density_diffrn 3.28
_diffrn_ambient_temperature 296.
_citation_title

;
Ammonium iron(II, III) phosphate: hydrothermal synthesis and characterization
of N H4 Fe2 (P O4)2
;
loop_
_citation_id
_citation_journal_full
_citation_year
_citation_journal_volume
_citation_page_first
_citation_page_last
_citation_journal_id_ASTM
primary 'Inorganic Chemistry' 1998 37 799 803 INOCAJ
loop_
_citation_author_citation_id
_citation_author_name
primary 'Boudin, S.'
primary 'Lii, K.-H.'
_cell_length_a 20.00659(10)
_cell_length_b 14.8319(2)
_cell_length_c 9.9899(1)
_cell_angle_alpha 90.
_cell_angle_beta 119.278(1)
_cell_angle_gamma 90.
_cell_volume 2585.68
_cell_formula_units_Z 16
_space_group_name_H-M_alt 'C 1 2/c 1'
_space_group_IT_number 15
loop_
_space_group_symop_id
_space_group_symop_operation_xyz
1 'x, -y, z+1/2'
2 '-x, -y, -z'
3 '-x, y, -z+1/2'
4 'x, y, z'
5 'x+1/2, -y+1/2, z+1/2'
6 '-x+1/2, -y+1/2, -z'
7 '-x+1/2, y+1/2, -z+1/2'
8 'x+1/2, y+1/2, z'
loop_
_atom_type_symbol
_atom_type_oxidation_number
Fe3+ 3
Fe2+ 2
P5+ 5
O2- -2
N3- -3
H1+ 1
loop_
_atom_site_label
_atom_site_type_symbol
_atom_site_symmetry_multiplicity
_atom_site_Wyckoff_symbol
_atom_site_fract_x
_atom_site_fract_y
_atom_site_fract_z
_atom_site_U_iso_or_equiv
_atom_site_occupancy
Fe1 Fe3+ 4 e 0.5 0.18089(3) 0.25 . 1.
Fe2 Fe3+ 4 e 0.5 0.30581(3) 0.75 . 1.
Fe3 Fe3+ 8 f 0.74969(2) 0.56195(2) 0.24674(4) . 1.
Fe4 Fe2+ 8 f 0.57533(2) 0.43502(2) 0.09127(4) . 1.
Fe5 Fe2+ 8 f 0.67213(2) 0.31055(2) 0.39793(4) . 1.
P1 P5+ 8 f 0.64444(3) 0.46134(4) 0.91141(7) . 1.
P2 P5+ 8 f 0.58294(3) 0.33423(4) 0.53922(7) . 1.
P3 P5+ 8 f 0.66647(3) 0.08687(4) 0.46451(7) . 1.
P4 P5+ 8 f 0.60510(3) 0.20915(4) 0.08074(7) . 1.
O1 O2- 8 f 0.6768(1) 0.4732(1) 0.0875(2) . 1.
O2 O2- 8 f 0.5706(1) 0.4070(1) 0.8682(2) . 1.
O3 O2- 8 f 0.6271(1) 0.5524(1) 0.8281(2) . 1.
O4 O2- 8 f 0.7005(1) 0.4085(1) 0.8789(2) . 1.
O5 O2- 8 f 0.6706(1) 0.3476(1) 0.6038(2) . 1.
O6 O2- 8 f 0.5612(1) 0.2814(1) 0.3900(2) . 1.
O7 O2- 8 f 0.5403(1) 0.4248(1) 0.5051(2) . 1.
O8 O2- 8 f 0.5667(1) 0.2804(1) 0.6504(2) . 1.
O9 O2- 8 f 0.7059(1) 0.1804(1) 0.4968(2) . 1.
O10 O2- 8 f 0.6962(1) 0.0404(1) 0.6212(2) . 1.
O11 O2- 8 f 0.5785(1) 0.0927(1) 0.3956(2) . 1.
O12 O2- 8 f 0.6859(1) 0.0341(1) 0.3563(2) . 1.
O13 O2- 8 f 0.6228(1) 0.3027(1) 0.1598(2) . 1.
O14 O2- 8 f 0.6825(1) 0.1609(1) 0.1394(2) . 1.
O15 O2- 8 f 0.5515(1) 0.1574(1) 0.1221(2) . 1.
O16 O2- 8 f 0.5701(1) 0.2163(1) -.0945(2) . 1.
N1 N3- 8 f 0.7126(2) 0.1896(2) 0.8373(3) . 1.
N2 N3- 8 f 0.4467(2) -.0646(2) 0.3400(4) . 1.
H1 H1+ 8 f 0.666(3) 0.207(3) 0.822(5) 0.037(11) 1.
H2 H1+ 8 f 0.712(2) 0.149(2) 0.765(4) 0.00260(88) 1.
H3 H1+ 8 f 0.726(2) 0.171(3) 0.919(5) 0.0299(99) 1.
H4 H1+ 8 f 0.740(3) 0.225(3) 0.837(5) 0.042(12) 1.
H5 H1+ 8 f 0.444(3) -.079(4) 0.433(7) 0.072(17) 1.
H6 H1+ 8 f 0.482(4) -.032(4) 0.367(7) 0.085(21) 1.
H7 H1+ 8 f 0.443(4) 0.894(5) 0.269(8) 0.107(24) 1.
H8 H1+ 8 f 0.398(3) -.041(3) 0.299(6) 0.067(16) 1.
loop_
_atom_site_aniso_label
_atom_site_aniso_type_symbol
_atom_site_aniso_U_11
_atom_site_aniso_U_22
_atom_site_aniso_U_33
_atom_site_aniso_U_12
_atom_site_aniso_U_13
_atom_site_aniso_U_23
Fe1 Fe3+ 0.00895(23) 0.01078(23) 0.00999(24) 0 0.00424(19) 0
Fe2 Fe3+ 0.00966(24) 0.01046(23) 0.00955(23) 0 0.00438(19) 0
Fe3 Fe3+ 0.00889(19) 0.01038(19) 0.00951(19) -.00025(11) 0.00395(15) 0.00016(11)
Fe4 Fe2+ 0.00996(18) 0.01312(19) 0.01120(18) 0.00011(12) 0.00529(14) 0.00039(12)
Fe5 Fe2+ 0.01142(19) 0.01267(18) 0.01099(18) 0.00089(12) 0.00570(14) 0.00042(12)
P1 P5+ 0.00961(26) 0.01010(27) 0.00979(27) -.00037(21) 0.00504(21) -.00030(21)
P2 P5+ 0.00919(27) 0.01060(28) 0.00969(26) -.00017(20) 0.00490(21) -.00040(21)
P3 P5+ 0.00932(27) 0.01089(27) 0.00927(27) 0.00054(20) 0.00472(21) 0.00064(21)
P4 P5+ 0.00941(27) 0.01086(27) 0.00993(27) 0.00084(21) 0.00492(22) 0.00077(21)
O1 O2- 0.01071(74) 0.01360(74) 0.00937(75) -.00111(61) 0.00431(62) -.00103(61)
O2 O2- 0.01188(77) 0.01292(76) 0.01367(79) -.00314(62) 0.00622(64) -.00300(64)
O3 O2- 0.01644(83) 0.01161(74) 0.01056(76) -.00003(63) 0.00618(66) 0.00108(60)
O4 O2- 0.01383(79) 0.01475(79) 0.01485(79) 0.00132(64) 0.00923(67) 0.00010(65)
O5 O2- 0.00899(74) 0.01309(75) 0.01233(76) -.00040(61) 0.00519(63) -.00127(62)
O6 O2- 0.01317(78) 0.01354(76) 0.01143(76) -.00135(64) 0.00559(64) -.00237(63)
O7 O2- 0.01104(78) 0.01211(74) 0.01816(85) 0.00132(61) 0.00648(68) -.00038(64)
O8 O2- 0.01437(80) 0.01565(78) 0.01436(80) -.00043(64) 0.00935(68) 0.00068(64)
O9 O2- 0.01136(77) 0.01190(75) 0.01879(85) -.00043(61) 0.00666(67) 0.00053(64)
O10 O2- 0.01651(85) 0.01561(80) 0.01258(80) 0.00420(66) 0.00733(69) 0.00337(65)
O11 O2- 0.01012(78) 0.01445(77) 0.01602(82) 0.00084(62) 0.00680(67) 0.00186(65)
O12 O2- 0.01497(81) 0.01532(80) 0.01436(80) 0.00031(64) 0.00925(68) -.00108(65)
O13 O2- 0.01836(84) 0.01165(75) 0.01161(76) -.00056(64) 0.00657(67) -.00181(62)
O14 O2- 0.01183(81) 0.01672(82) 0.01616(84) 0.00354(65) 0.00589(69) 0.00439(68)
O15 O2- 0.01441(82) 0.01675(81) 0.01495(80) 0.00008(66) 0.00984(68) 0.00144(66)
O16 O2- 0.01475(82) 0.01539(79) 0.01134(79) 0.00287(65) 0.00619(68) 0.00183(64)
N1 N3- 0.0214(12) 0.0236(12) 0.0211(12) 0.00443(98) 0.00867(99) 0.00334(99)
N2 N3- 0.0279(15) 0.0361(15) 0.0371(16) 0.0099(12) 0.0155(13) 0.0149(13)
#End of TTdata_85794-ICSD
#
