(C) 2022 by FIZ Karlsruhe - Leibniz Institute for Information Infrastructure.  All rights reserved.
data_73925-ICSD
_database_code_ICSD 73925
_audit_creation_date 1995-01-10
_chemical_name_common
'Dibarium triiron(III) hydrogen bis(phosphate) bis(diphosphate)'
_chemical_formula_structural 'Ba2 Fe3 H (P O4)2 (P2 O7)2'
_chemical_formula_sum 'H1 Ba2 Fe3 O22 P6'
_chemical_name_structure_type Ba2V3H(PO4)2(P2O7)2
_exptl_crystal_density_diffrn 3.76
_citation_title

;
Hydrothermal synthesis and crystal structures of Ba2Fe3H(PO4)2(P2O7)2 and
Ba2V3H(PO4)2(P2O7)2
;
loop_
_citation_id
_citation_journal_full
_citation_year
_citation_journal_volume
_citation_page_first
_citation_page_last
_citation_journal_id_ASTM
primary 'Journal of Solid State Chemistry' 1993 106 485 492 JSSCBI
loop_
_citation_author_citation_id
_citation_author_name
primary 'Dvoncova, E.'
primary 'Lii, K.-H.'
primary 'Li, C.-H.'
primary 'Chen, T.-M.'
_cell_length_a 4.858(2)
_cell_length_b 7.908(2)
_cell_length_c 11.300(3)
_cell_angle_alpha 89.10(2)
_cell_angle_beta 89.28(2)
_cell_angle_gamma 87.25(2)
_cell_volume 433.53
_cell_formula_units_Z 1
_space_group_name_H-M_alt 'P -1'
_space_group_IT_number 2
loop_
_space_group_symop_id
_space_group_symop_operation_xyz
1 '-x, -y, -z'
2 'x, y, z'
loop_
_atom_type_symbol
_atom_type_oxidation_number
Ba2+ 2
Fe3+ 3
P5+ 5
O2- -2
H1+ 1
loop_
_atom_site_label
_atom_site_type_symbol
_atom_site_symmetry_multiplicity
_atom_site_Wyckoff_symbol
_atom_site_fract_x
_atom_site_fract_y
_atom_site_fract_z
_atom_site_B_iso_or_equiv
_atom_site_occupancy
Ba1 Ba2+ 2 i 0.26813(5) 0.99558(2) 0.82401(2) 0.968(10) 1.
Fe1 Fe3+ 1 b 0 0 0.5 0.582(22) 1.
Fe2 Fe3+ 2 i 0.27684(10) 0.50644(6) 0.79481(5) 0.560(16) 1.
P1 P5+ 2 i 0.81638(19) 0.29594(11) 0.94828(8) 0.600(27) 1.
P2 P5+ 2 i 0.76292(19) 0.69837(11) 0.65676(8) 0.568(27) 1.
P3 P5+ 2 i 0.47493(19) 0.24287(11) 0.57576(8) 0.547(26) 1.
O1 O2- 2 i 0.08069(54) 0.31959(31) 0.87621(23) 0.980(77) 1.
O2 O2- 2 i 0.59237(54) 0.43370(32) 0.91079(23) 0.919(76) 1.
O3 O2- 2 i 0.72876(54) 0.11554(32) 0.92993(24) 1.088(80) 1.
O4 O2- 2 i 0.85746(56) 0.32246(31) 0.08196(23) 0.951(77) 1.
O5 O2- 2 i 0.86851(53) 0.87894(30) 0.65064(22) 0.846(75) 1.
O6 O2- 2 i 0.97967(55) 0.56560(32) 0.69008(24) 1.122(78) 1.
O7 O2- 2 i 0.32675(54) 0.35377(30) 0.47302(23) 0.813(74) 1.
O8 O2- 2 i 0.50769(54) 0.69866(31) 0.73642(23) 0.875(75) 1.
O9 O2- 2 i 0.30806(53) 0.08481(31) 0.59232(23) 0.781(73) 1.
O10 O2- 2 i 0.76986(55) 0.20280(31) 0.53951(24) 1.013(77) 1.
O11 O2- 2 i 0.45490(54) 0.34465(33) 0.68757(23) 1.060(78) 1.
H1 H1+ 1 e 0.5 0.5 0 0.50(78) 1.
#End of TTdata_73925-ICSD
#
