(C) 2022 by FIZ Karlsruhe - Leibniz Institute for Information Infrastructure.  All rights reserved.
data_417725-ICSD
_database_code_ICSD 417725
_audit_creation_date 2008-08-01
_audit_update_record 2021-02-01
_chemical_name_common
'Cadmium decakis(monooxomolybdate(V)) octakis(diphosphate)'
_chemical_formula_structural 'Cd0.5 (Mo O)5 (P2 O7)4'
_chemical_formula_sum 'Cd0.5 Mo5 O33 P8'
_chemical_name_structure_type Li(MoO)5(P2O7)4
_exptl_crystal_density_diffrn 3.42
_diffrn_ambient_temperature 293.
_citation_title

;
A large series of isotypic Mo(V) diphosphates with a tunnel structure from A
(Mo O)10 (P2 O7)8 with A = Ba, Sr, Ca, Cd, Pb, to A (Mo O)5 (P2 O7)4 with A =
Ag, Li, Na, K
;
loop_
_citation_id
_citation_journal_full
_citation_year
_citation_journal_volume
_citation_page_first
_citation_page_last
_citation_journal_id_ASTM
primary 'Journal of Solid State Chemistry' 2007 180 2044 2052 JSSCBI
loop_
_citation_author_citation_id
_citation_author_name
primary 'Leclaire, A.'
primary 'Caignaert, V.'
primary 'Raveau, B.'
_cell_length_a 32.3785
_cell_length_b 4.8487
_cell_length_c 22.9057
_cell_angle_alpha 90
_cell_angle_beta 134.848
_cell_angle_gamma 90
_cell_volume 2549.53
_cell_formula_units_Z 4
_space_group_name_H-M_alt 'C 1 2/c 1'
_space_group_IT_number 15
loop_
_space_group_symop_id
_space_group_symop_operation_xyz
1 'x, -y, z+1/2'
2 '-x, -y, -z'
3 '-x, y, -z+1/2'
4 'x, y, z'
5 'x+1/2, -y+1/2, z+1/2'
6 '-x+1/2, -y+1/2, -z'
7 '-x+1/2, y+1/2, -z+1/2'
8 'x+1/2, y+1/2, z'
loop_
_atom_type_symbol
_atom_type_oxidation_number
Mo5+ 5
P5+ 5
Cd2+ 2
O2- -2
loop_
_atom_site_label
_atom_site_type_symbol
_atom_site_symmetry_multiplicity
_atom_site_Wyckoff_symbol
_atom_site_fract_x
_atom_site_fract_y
_atom_site_fract_z
_atom_site_U_iso_or_equiv
_atom_site_occupancy
Mo1 Mo5+ 8 f 0.09255(2) 0.85545(11) 0.03841(3) 0.0099(3) 1
Mo2 Mo5+ 8 f 0.19584(2) 0.10624(10) 0.35312(3) 0.0102(3) 1
Mo3 Mo5+ 4 e 0 0.7408(2) 0.25 0.0117(5) 0.7420(10)
Mo4 Mo5+ 4 e 0 0.5118(6) 0.25 0.0117(5) 0.2580(10)
P1 P5+ 8 f 0.09878(6) 0.6048(3) 0.24694(9) 0.0101(9) 1
P2 P5+ 8 f 0.12701(7) 0.3577(3) 0.16456(9) 0.0116(10) 1
P3 P5+ 8 f 0.10222(7) 0.3568(3) -0.04890(9) 0.0115(9) 1
P4 P5+ 8 f 0.21235(7) 0.1087(3) 0.08987(9) 0.0117(9) 1
Cd1 Cd2+ 8 f 0.2569(2) 0.1321(19) 0.2652(3) 0.048(2) 0.125
Cd2 Cd2+ 8 f 0.2595(2) 0.3447(17) 0.2536(3) 0.048(2) 0.125
O1 O2- 8 f 0.0279(2) 0.7306(9) -0.0139(3) 0.025(4) 1
O2 O2- 8 f 0.09269(19) 1.1271(9) 0.1052(3) 0.018(3) 1
O3 O2- 8 f 0.1403(2) 0.5878(9) 0.1338(3) 0.022(4) 1
O4 O2- 8 f 0.1103(2) 0.6474(9) -0.0175(3) 0.019(3) 1
O5 O2- 8 f 0.07133(19) 1.1669(10) -0.0376(3) 0.020(3) 1
O6 O2- 8 f 0.1829(2) 1.0189(9) 0.1157(3) 0.017(3) 1
O7 O2- 8 f 0.2079(2) -0.0200(9) 0.4302(3) 0.025(4) 1
O8 O2- 8 f 0.26086(19) 0.3858(9) 0.4177(3) 0.019(3) 1
O9 O2- 8 f 0.12318(19) -0.1057(9) 0.2625(3) 0.019(3) 1
O10 O2- 8 f 0.1403(2) 0.4144(9) 0.3190(3) 0.020(3) 1
O11 O2- 8 f 0.2446(2) -0.1585(10) 0.3537(3) 0.024(3) 1
O12 O2- 8 f 0.18299(19) 0.2721(8) 0.2503(3) 0.015(3) 1
O13 O2- 4 e 0 1.0850(3) 0.25 0.063(9) 0.7420(10)
O14 O2- 4 e 0 0.1678(7) 0.25 0.063(9) 0.2580(10)
O15 O2- 8 f 0.03907(19) 0.6208(10) 0.2164(3) 0.019(3) 1
O16 O2- 8 f 0.07360(18) 0.6370(10) 0.3630(3) 0.017(3) 1
O17 O2- 8 f 0.08422(19) 0.4823(8) 0.1703(3) 0.013(3) 1
O18 O2- 8 f 0.16468(18) 0.2350(8) -0.0001(3) 0.014(3) 1
loop_
_atom_site_aniso_label
_atom_site_aniso_type_symbol
_atom_site_aniso_U_11
_atom_site_aniso_U_22
_atom_site_aniso_U_33
_atom_site_aniso_U_12
_atom_site_aniso_U_13
_atom_site_aniso_U_23
Mo1 Mo5+ 0.0115(2) 0.0078(2) 0.0121(3) -0.0006(2) 0.0090(2) -0.0002(2)
Mo2 Mo5+ 0.0096(2) 0.0079(2) 0.0118(2) 0.0001(2) 0.0071(2) 0.0008(2)
Mo3 Mo5+ 0.0079(4) 0.0188(5) 0.0092(4) 0 0.0063(4) 0
Mo4 Mo5+ 0.0079(4) 0.0188(5) 0.0092(4) 0 0.0063(4) 0
P1 P5+ 0.0095(7) 0.0106(7) 0.0130(7) -0.0013(6) 0.0089(6) -0.0019(6)
P2 P5+ 0.0134(7) 0.0112(7) 0.0128(7) 0.0020(6) 0.0102(7) 0.0024(6)
P3 P5+ 0.0100(7) 0.0110(7) 0.0120(7) 0.0009(6) 0.0073(6) -0.0018(6)
P4 P5+ 0.0085(7) 0.0100(7) 0.0147(8) 0.0012(6) 0.0074(6) 0.0032(6)
Cd1 Cd2+ 0.0162(15) 0.103(4) 0.0218(17) -0.007(3) 0.0126(14) -0.030(3)
Cd2 Cd2+ 0.0162(15) 0.103(4) 0.0218(17) -0.007(3) 0.0126(14) -0.030(3)
O1 O2- 0.019(3) 0.028(3) 0.034(3) -0.007(2) 0.021(3) -0.011(2)
O2 O2- 0.017(2) 0.020(2) 0.018(2) 0.000(2) 0.012(2) -0.007(2)
O3 O2- 0.031(3) 0.019(2) 0.027(3) 0.002(2) 0.024(2) 0.006(2)
O4 O2- 0.025(3) 0.011(2) 0.031(3) -0.0053(19) 0.023(2) -0.012(2)
O5 O2- 0.014(2) 0.024(2) 0.020(2) 0.0037(19) 0.012(2) 0.0085(19)
O6 O2- 0.016(2) 0.026(2) 0.014(2) -0.0060(18) 0.013(2) -0.0043(18)
O7 O2- 0.028(3) 0.027(3) 0.019(3) -0.001(2) 0.016(2) 0.008(2)
O8 O2- 0.019(2) 0.019(2) 0.021(2) -0.005(2) 0.014(2) 0.000(2)
O9 O2- 0.016(2) 0.014(2) 0.018(2) -0.0053(19) 0.009(2) -0.0013(19)
O10 O2- 0.024(3) 0.023(2) 0.019(2) 0.008(2) 0.018(2) 0.0033(19)
O11 O2- 0.020(2) 0.021(2) 0.026(3) 0.010(2) 0.013(2) 0.005(2)
O12 O2- 0.013(2) 0.019(2) 0.013(2) 0.0047(17) 0.009(2) 0.0059(17)
O13 O2- 0.049(7) 0.103(10) 0.042(6) 0 0.034(6) 0
O14 O2- 0.049(7) 0.103(10) 0.042(6) 0 0.034(6) 0
O15 O2- 0.013(2) 0.031(2) 0.021(2) 0.002(2) 0.015(2) -0.001(2)
O16 O2- 0.012(2) 0.027(2) 0.013(2) 0.007(2) 0.0083(19) 0.008(2)
O17 O2- 0.010(2) 0.020(2) 0.009(2) 0.0054(16) 0.0068(19) 0.0014(16)
O18 O2- 0.008(2) 0.020(2) 0.013(2) 0.0064(16) 0.0071(19) 0.0069(16)
#End of TTdata_417725-ICSD
#
