(C) 2022 by FIZ Karlsruhe - Leibniz Institute for Information Infrastructure.  All rights reserved.
data_143977-ICSD
_database_code_ICSD 143977
_audit_creation_date 2022-02-01
_chemical_name_common 'Lithium octadecathio-decaborate iodide'
_chemical_formula_structural 'Li6.8 B10 S18 I1.6'
_chemical_formula_sum 'B10 I1.6 Li6.8 S18'
_chemical_name_structure_type Li4+x(B10S18)Cl1+y
_exptl_crystal_density_diffrn 2.17
_diffrn_ambient_temperature 280.
_citation_title
'Fast Li-ion conductivity in superadamantanoid lithium thioborate halides'
loop_
_citation_id
_citation_journal_full
_citation_year
_citation_journal_volume
_citation_page_first
_citation_page_last
_citation_journal_id_ASTM
primary 'Angewandte Chemie, International Edition' 2021 60 6975 6980 ACIEF5
loop_
_citation_author_citation_id
_citation_author_name
primary 'Kaup, Kavish'
primary 'Assoud, Abdeljalil'
primary 'Liu, Jue'
primary 'Nazar, Linda F.'
_cell_length_a 21.3186(12)
_cell_length_b 21.2724(12)
_cell_length_c 16.2093(9)
_cell_angle_alpha 90
_cell_angle_beta 128.7696(14)
_cell_angle_gamma 90
_cell_volume 5731.26
_cell_formula_units_Z 8
_space_group_name_H-M_alt 'C 1 2/c 1'
_space_group_IT_number 15
loop_
_space_group_symop_id
_space_group_symop_operation_xyz
1 'x, -y, z+1/2'
2 '-x, -y, -z'
3 '-x, y, -z+1/2'
4 'x, y, z'
5 'x+1/2, -y+1/2, z+1/2'
6 '-x+1/2, -y+1/2, -z'
7 '-x+1/2, y+1/2, -z+1/2'
8 'x+1/2, y+1/2, z'
loop_
_atom_type_symbol
_atom_type_oxidation_number
B3+ 3
S2- -2
I1- -1
Li1+ 1
loop_
_atom_site_label
_atom_site_type_symbol
_atom_site_symmetry_multiplicity
_atom_site_Wyckoff_symbol
_atom_site_fract_x
_atom_site_fract_y
_atom_site_fract_z
_atom_site_U_iso_or_equiv
_atom_site_occupancy
B1 B3+ 8 f 0.0473(3) 0.1607(3) 0.4681(4) 0.0122(10) 1
B2 B3+ 8 f 0.0836(3) 0.1328(3) 0.0130(4) 0.0134(11) 1
B3 B3+ 8 f 0.0866(3) 0.0700(3) 0.1896(4) 0.0130(11) 1
B4 B3+ 8 f 0.1186(3) 0.2153(3) 0.1986(4) 0.0135(11) 1
B5 B3+ 8 f 0.2190(3) 0.1027(2) 0.0049(4) 0.0089(10) 1
B6 B3+ 8 f 0.2229(3) 0.0419(3) 0.1767(4) 0.0130(11) 1
B7 B3+ 8 f 0.2559(3) 0.1852(3) 0.1854(4) 0.0152(11) 1
B8 B3+ 8 f 0.2604(3) 0.1229(3) 0.3632(4) 0.0149(11) 1
B9 B3+ 8 f 0.2730(3) 0.4829(2) 0.1480(4) 0.0097(10) 1
B10 B3+ 8 f 0.2897(3) 0.2628(3) 0.3665(4) 0.0136(11) 1
S1 S2- 8 f 0.00796(7) 0.23261(6) 0.12446(10) 0.0163(3) 1
S2 S2- 8 f 0.02430(7) 0.08617(6) 0.38664(10) 0.0155(3) 1
S3 S2- 8 f 0.02652(7) 0.15279(6) 0.56746(9) 0.0174(3) 1
S4 S2- 8 f 0.10788(7) 0.05538(6) 0.09169(9) 0.0129(2) 1
S5 S2- 8 f 0.14277(7) 0.20534(6) 0.10186(9) 0.0132(2) 1
S6 S2- 8 f 0.14631(7) 0.14030(6) 0.28427(9) 0.0126(2) 1
S7 S2- 8 f 0.16117(7) 0.16451(6) 0.54477(9) 0.0152(3) 1
S8 S2- 8 f 0.17715(7) 0.28382(6) 0.28997(10) 0.0166(3) 1
S9 S2- 8 f 0.24509(7) 0.40363(6) 0.07749(10) 0.0162(3) 1
S10 S2- 8 f 0.24727(8) 0.46806(6) 0.24080(10) 0.0177(3) 1
S11 S2- 8 f 0.25040(7) 0.02752(6) 0.08865(9) 0.0152(2) 1
S12 S2- 8 f 0.28069(8) 0.17479(6) 0.09305(10) 0.0177(3) 1
S13 S2- 8 f 0.28781(7) 0.11066(6) 0.27139(9) 0.0130(2) 1
S14 S2- 8 f 0.28873(7) 0.05146(6) 0.44970(9) 0.0163(3) 1
S15 S2- 8 f 0.31812(7) 0.25422(6) 0.27517(10) 0.0166(3) 1
S16 S2- 8 f 0.32116(7) 0.19033(6) 0.45636(9) 0.0159(3) 1
S17 S2- 8 f 0.38813(7) 0.49736(6) 0.22730(10) 0.0164(3) 1
S18 S2- 8 f 0.39486(7) 0.37861(6) 0.08337(9) 0.0166(3) 1
I1 I1- 8 f 0.4735(3) 0.1133(5) 0.0085(3) 0.1054(18) 0.352(11)
I2 I1- 8 f 0.4811(3) 0.09940(19) 0.0069(5) 0.086(2) 0.273(11)
I3 I1- 4 e 0. 0.72079(4) 0.25 0.0574(4) 0.843(3)
I4 I1- 4 b 0. 0.5 0. 0.124(6) 0.119(4)
I5 I1- 4 e 0. 0.50156(18) 0.25 0.0667(15) 0.259(3)
I6 I1- 8 f 0.0053(5) 0.5478(4) 0.3138(9) 0.116(5) 0.094(3)
I7 I1- 4 e 0. 0.4082(4) 0.25 0.218(8) 0.252(8)
I8 I1- 8 f 0.0202(11) 0.4248(8) 0.1797(19) 0.321(13) 0.167(7)
Li1 Li1+ 8 f 0.1737(8) -0.0583(7) -0.0377(11) 0.046(5) 0.88(4)
Li2 Li1+ 8 f 0.4651(11) 0.2291(9) 0.392(2) 0.070(12) 0.63(5)
Li3 Li1+ 4 d 0.25 0.25 0.5 0.14(2) 0.96(8)
Li4 Li1+ 8 f 0.336(2) 0.3803(15) 0.281(2) 0.105(17) 0.63(6)
Li5 Li1+ 8 f -0.0356(19) 0.3429(15) 0.083(3) 0.071(16) 0.41(5)
Li6 Li1+ 4 e 0. 0.1670(8) 0.25 0.036(6) 0.92(6)
Li7 Li1+ 4 e 0. 0.9388(9) 0.25 0.038(7) 0.89(6)
Li8 Li1+ 8 f 0.152(3) 0.379(3) 0.189(4) 0.29(7) 0.54(7)
Li9 Li1+ 8 f 0.104(2) 0.614(3) 0.381(4) 0.16(4) 0.47(6)
Li10 Li1+ 8 f 0.390(4) 0.431(3) 0.379(7) 0.09(4) 0.27(6)
Li11 Li1+ 8 f 0.3468(17) 0.2683(13) 0.081(2) 0.055(13) 0.43(4)
Li12 Li1+ 8 f 0.109(5) 0.002(4) -0.077(6) 0.03(3) 0.12(4)
Li13 Li1+ 8 f 0.444(3) 0.208(3) 0.446(5) 0.03(2) 0.16(4)
Li14 Li1+ 8 f -0.0120(13) 0.5718(14) 0.0647(19) 0.074(10) 0.82(7)
loop_
_atom_site_aniso_label
_atom_site_aniso_type_symbol
_atom_site_aniso_U_11
_atom_site_aniso_U_22
_atom_site_aniso_U_33
_atom_site_aniso_U_12
_atom_site_aniso_U_13
_atom_site_aniso_U_23
B1 B3+ 0.008(2) 0.014(3) 0.012(2) -0.001(2) 0.005(2) -0.002(2)
B2 B3+ 0.013(2) 0.015(3) 0.013(3) 0.002(2) 0.008(2) 0.000(2)
B3 B3+ 0.011(2) 0.013(3) 0.015(3) -0.001(2) 0.008(2) 0.000(2)
B4 B3+ 0.011(2) 0.016(3) 0.014(3) 0.000(2) 0.008(2) -0.001(2)
B5 B3+ 0.010(2) 0.010(2) 0.010(2) 0.000(2) 0.007(2) 0.000(2)
B6 B3+ 0.012(2) 0.014(3) 0.014(3) 0.003(2) 0.008(2) 0.002(2)
B7 B3+ 0.012(2) 0.018(3) 0.013(3) -0.001(2) 0.007(2) -0.001(2)
B8 B3+ 0.011(2) 0.018(3) 0.012(3) -0.002(2) 0.005(2) -0.001(2)
B9 B3+ 0.011(2) 0.013(3) 0.008(2) -0.001(2) 0.007(2) -0.001(2)
B10 B3+ 0.009(2) 0.014(3) 0.015(3) 0.000(2) 0.005(2) 0.000(2)
S1 S2- 0.0098(5) 0.0169(6) 0.0190(6) 0.0006(5) 0.0075(5) -0.0016(5)
S2 S2- 0.0094(5) 0.0163(6) 0.0183(6) -0.0003(5) 0.0074(5) -0.0026(5)
S3 S2- 0.0111(5) 0.0247(7) 0.0131(6) -0.0021(5) 0.0060(5) -0.0019(5)
S4 S2- 0.0115(5) 0.0141(6) 0.0125(5) -0.0001(5) 0.0072(5) -0.0004(5)
S5 S2- 0.0110(5) 0.0143(6) 0.0129(6) -0.0004(5) 0.0068(5) 0.0002(5)
S6 S2- 0.0109(5) 0.0139(6) 0.0126(6) -0.0010(4) 0.0071(5) -0.0014(5)
S7 S2- 0.0094(5) 0.0145(6) 0.0174(6) -0.0015(5) 0.0063(5) -0.0042(5)
S8 S2- 0.0116(5) 0.0158(6) 0.0183(6) -0.0016(5) 0.0074(5) -0.0044(5)
S9 S2- 0.0184(6) 0.0164(6) 0.0179(6) -0.0035(5) 0.0134(5) -0.0032(5)
S10 S2- 0.0227(6) 0.0155(6) 0.0198(6) -0.0044(5) 0.0158(5) -0.0036(5)
S11 S2- 0.0169(6) 0.0166(6) 0.0153(6) 0.0002(5) 0.0117(5) -0.0003(5)
S12 S2- 0.0205(6) 0.0188(6) 0.0210(6) -0.0056(5) 0.0165(5) -0.0041(5)
S13 S2- 0.0113(5) 0.0150(6) 0.0129(6) -0.0006(5) 0.0077(5) -0.0009(5)
S14 S2- 0.0170(6) 0.0155(6) 0.0141(6) 0.0009(5) 0.0087(5) 0.0027(5)
S15 S2- 0.0163(6) 0.0165(6) 0.0183(6) -0.0051(5) 0.0115(5) -0.0042(5)
S16 S2- 0.0137(5) 0.0157(6) 0.0134(6) -0.0011(5) 0.0061(5) -0.0024(5)
S17 S2- 0.0141(5) 0.0167(6) 0.0183(6) -0.0011(5) 0.0102(5) -0.0039(5)
S18 S2- 0.0147(6) 0.0224(7) 0.0132(6) -0.0004(5) 0.0090(5) -0.0014(5)
I1 I1- 0.055(2) 0.196(5) 0.0521(18) -0.052(2) 0.0268(14) 0.000(2)
I2 I1- 0.0257(15) 0.034(3) 0.146(5) -0.0004(12) 0.0285(18) 0.0114(17)
I3 I1- 0.0239(4) 0.0569(6) 0.0724(7) 0. 0.0209(4) 0.
I4 I1- 0.101(8) 0.057(6) 0.208(14) 0.000(5) 0.094(9) -0.010(7)
I5 I1- 0.0441(18) 0.081(3) 0.0429(19) 0. 0.0117(14) 0.
I6 I1- 0.059(5) 0.071(6) 0.169(10) -0.009(4) 0.048(6) -0.044(5)
I7 I1- 0.244(11) 0.214(9) 0.034(3) 0. 0.008(4) 0.
Li1 Li1+ 0.049(9) 0.048(9) 0.052(9) -0.024(7) 0.037(8) -0.017(7)
Li2 Li1+ 0.026(10) 0.023(11) 0.09(2) 0.016(8) 0.006(11) -0.011(11)
Li3 Li1+ 0.22(4) 0.15(3) 0.17(3) 0.11(3) 0.18(3) 0.05(2)
Li4 Li1+ 0.13(3) 0.09(2) 0.07(2) 0.09(2) 0.05(2) 0.049(18)
Li5 Li1+ 0.05(2) 0.035(19) 0.06(2) -0.010(14) -0.002(16) 0.007(16)
Li6 Li1+ 0.060(12) 0.034(10) 0.041(11) 0. 0.045(10) 0.
Li7 Li1+ 0.024(9) 0.048(12) 0.037(11) 0. 0.016(8) 0.
Li8 Li1+ 0.15(5) 0.23(7) 0.15(5) -0.15(5) -0.07(3) 0.15(5)
Li9 Li1+ 0.03(2) 0.22(6) 0.14(5) 0.00(3) 0.01(2) 0.13(4)
Li10 Li1+ 0.08(5) 0.09(5) 0.14(7) 0.03(4) 0.08(5) 0.05(5)
Li11 Li1+ 0.053(19) 0.033(17) 0.054(19) -0.028(13) 0.021(15) 0.015(13)
#End of TTdata_143977-ICSD
#
