(C) 2022 by FIZ Karlsruhe - Leibniz Institute for Information Infrastructure.  All rights reserved.
data_417726-ICSD
_database_code_ICSD 417726
_audit_creation_date 2008-08-01
_audit_update_record 2012-02-01
_chemical_name_common
'Potassium pentakis(monooxomolybdate(V)) tetrakis(diphosphate)'
_chemical_formula_structural 'K (Mo O)5 (P2 O7)4'
_chemical_formula_sum 'K1 Mo5 O33 P8'
_chemical_name_structure_type Li(MoO)5(P2O7)4
_exptl_crystal_density_diffrn 3.33
_diffrn_ambient_temperature 293.
_citation_title

;
A large series of isotypic Mo(V) diphosphates with a tunnel structure from A
(Mo O)10 (P2 O7)8 with A = Ba, Sr, Ca, Cd, Pb, to A (Mo O)5 (P2 O7)4 with A =
Ag, Li, Na, K
;
loop_
_citation_id
_citation_journal_full
_citation_year
_citation_journal_volume
_citation_page_first
_citation_page_last
_citation_journal_id_ASTM
primary 'Journal of Solid State Chemistry' 2007 180 2044 2052 JSSCBI
loop_
_citation_author_citation_id
_citation_author_name
primary 'Leclaire, A.'
primary 'Caignaert, V.'
primary 'Raveau, B.'
_cell_length_a 32.54730(10)
_cell_length_b 4.83330(10)
_cell_length_c 23.06370(10)
_cell_angle_alpha 90
_cell_angle_beta 134.5870(10)
_cell_angle_gamma 90
_cell_volume 2583.93
_cell_formula_units_Z 4
_space_group_name_H-M_alt 'C 1 2/c 1'
_space_group_IT_number 15
loop_
_space_group_symop_id
_space_group_symop_operation_xyz
1 'x, -y, z+1/2'
2 '-x, -y, -z'
3 '-x, y, -z+1/2'
4 'x, y, z'
5 'x+1/2, -y+1/2, z+1/2'
6 '-x+1/2, -y+1/2, -z'
7 '-x+1/2, y+1/2, -z+1/2'
8 'x+1/2, y+1/2, z'
loop_
_atom_type_symbol
_atom_type_oxidation_number
Mo5+ 5
K1+ 1
P5+ 5
O2- -2
loop_
_atom_site_label
_atom_site_type_symbol
_atom_site_symmetry_multiplicity
_atom_site_Wyckoff_symbol
_atom_site_fract_x
_atom_site_fract_y
_atom_site_fract_z
_atom_site_U_iso_or_equiv
_atom_site_occupancy
Mo1 Mo5+ 8 f 0.09206(2) 0.84893(10) 0.03804(3) 0.0084(3) 1
Mo2 Mo5+ 8 f 0.19619(2) 0.10159(9) 0.35358(3) 0.0082(3) 1
Mo3 Mo5+ 4 e 0 0.74268(17) 0.25 0.0099(5) 0.8906(10)
Mo4 Mo5+ 4 e 0 0.5100(14) 0.25 0.0099(5) 0.1094(10)
K1 K1+ 8 f 0.24097(15) 0.714(2) 0.2421(3) 0.154(5) 0.5
P1 P5+ 8 f 0.09878(6) 0.5942(3) 0.24747(9) 0.0088(9) 1
P2 P5+ 8 f 0.12459(6) 0.3519(3) 0.16411(9) 0.0109(9) 1
P3 P5+ 8 f 0.10125(6) 0.3456(3) -0.05011(9) 0.0092(9) 1
P4 P5+ 8 f 0.21036(6) 0.1066(3) 0.08536(9) 0.0105(9) 1
O1 O2- 8 f 0.02831(19) 0.7209(9) -0.0145(3) 0.025(3) 1
O2 O2- 8 f 0.09211(18) 1.1161(8) 0.1050(3) 0.017(3) 1
O3 O2- 8 f 0.13624(19) 0.5821(8) 0.1328(3) 0.018(3) 1
O4 O2- 8 f 0.11233(19) 0.6290(9) -0.0134(3) 0.018(3) 1
O5 O2- 8 f 0.07040(17) 1.1534(9) -0.0399(3) 0.018(3) 1
O6 O2- 8 f 0.18062(17) 1.0168(8) 0.1104(3) 0.014(3) 1
O7 O2- 8 f 0.2070(2) -0.0276(9) 0.4294(3) 0.026(4) 1
O8 O2- 8 f 0.26020(18) 0.3847(9) 0.4187(3) 0.019(3) 1
O9 O2- 8 f 0.12616(17) -0.1267(9) 0.2635(3) 0.018(3) 1
O10 O2- 8 f 0.13803(17) 0.3991(8) 0.3179(2) 0.015(3) 1
O11 O2- 8 f 0.24928(19) -0.1545(9) 0.3611(3) 0.023(3) 1
O12 O2- 8 f 0.17969(17) 0.2736(8) 0.2492(3) 0.015(3) 1
O13 O2- 4 e 0 1.0879(3) 0.25 0.0290(18) 0.8906(10)
O14 O2- 4 e 0 0.1649(14) 0.25 0.0290(18) 0.1094(10)
O15 O2- 8 f 0.04086(17) 0.6271(9) 0.2193(2) 0.015(3) 1
O16 O2- 8 f 0.07181(16) 0.6339(9) 0.3623(2) 0.014(3) 1
O17 O2- 8 f 0.08207(17) 0.4705(8) 0.1702(3) 0.012(3) 1
O18 O2- 8 f 0.16193(17) 0.2236(8) -0.0066(2) 0.014(3) 1
loop_
_atom_site_aniso_label
_atom_site_aniso_type_symbol
_atom_site_aniso_U_11
_atom_site_aniso_U_22
_atom_site_aniso_U_33
_atom_site_aniso_U_12
_atom_site_aniso_U_13
_atom_site_aniso_U_23
Mo1 Mo5+ 0.0163(3) 0.0023(2) 0.0101(2) -0.00085(18) 0.0105(2) -0.00075(19)
Mo2 Mo5+ 0.0131(2) 0.0023(2) 0.0079(2) -0.00045(18) 0.0069(2) -0.0003(2)
Mo3 Mo5+ 0.0086(4) 0.0140(4) 0.0083(4) 0 0.0064(3) 0
Mo4 Mo5+ 0.0086(4) 0.0140(4) 0.0083(4) 0 0.0064(3) 0
K1 K1+ 0.0052(17) 0.414(12) 0.022(2) 0.006(4) 0.0023(17) 0.083(4)
P1 P5+ 0.0132(7) 0.0067(7) 0.0086(7) -0.0001(5) 0.0084(6) -0.0012(6)
P2 P5+ 0.0178(8) 0.0067(7) 0.0119(7) 0.0017(6) 0.0118(6) 0.0016(6)
P3 P5+ 0.0138(7) 0.0059(6) 0.0083(7) 0.0013(5) 0.0079(6) -0.0003(6)
P4 P5+ 0.0120(7) 0.0059(7) 0.0119(7) 0.0011(5) 0.0078(6) 0.0025(6)
O1 O2- 0.024(2) 0.027(3) 0.030(3) -0.008(2) 0.021(2) -0.010(2)
O2 O2- 0.025(2) 0.012(2) 0.020(2) 0.0008(17) 0.018(2) -0.0037(18)
O3 O2- 0.031(2) 0.014(2) 0.023(2) 0.0046(18) 0.023(2) 0.0094(19)
O4 O2- 0.028(2) 0.013(2) 0.023(2) 0.0016(18) 0.022(2) -0.0016(19)
O5 O2- 0.017(2) 0.018(2) 0.018(2) 0.0008(17) 0.0115(19) 0.0070(19)
O6 O2- 0.013(2) 0.013(2) 0.014(2) -0.0033(15) 0.0089(19) -0.0026(17)
O7 O2- 0.037(3) 0.021(3) 0.028(3) 0.003(2) 0.026(3) 0.004(2)
O8 O2- 0.019(2) 0.024(2) 0.013(2) -0.0110(18) 0.0113(19) -0.0061(19)
O9 O2- 0.020(2) 0.015(2) 0.014(2) -0.0069(17) 0.0099(19) -0.0038(18)
O10 O2- 0.025(2) 0.013(2) 0.011(2) 0.0064(17) 0.0139(19) 0.0051(18)
O11 O2- 0.025(2) 0.023(2) 0.020(2) 0.0082(19) 0.015(2) -0.005(2)
O12 O2- 0.024(2) 0.0044(19) 0.018(2) 0.0021(16) 0.015(2) 0.0023(17)
O15 O2- 0.0145(19) 0.022(2) 0.011(2) 0.0043(17) 0.0102(17) 0.0000(18)
O16 O2- 0.016(2) 0.019(2) 0.0079(19) -0.0006(17) 0.0081(17) 0.0014(17)
O17 O2- 0.014(2) 0.013(2) 0.012(2) 0.0032(15) 0.0097(18) -0.0007(16)
O18 O2- 0.017(2) 0.013(2) 0.013(2) 0.0007(16) 0.0105(18) 0.0039(17)
#End of TTdata_417726-ICSD
#
