(C) 2022 by FIZ Karlsruhe - Leibniz Institute for Information Infrastructure.  All rights reserved.
data_81666-ICSD
_database_code_ICSD 81666
_audit_creation_date 1997-05-13
_chemical_name_common
'Tricesium pentairon(III) oxide hydroxide pentakis(arsenate(V))'
_chemical_formula_structural 'Cs3 Fe5 O (O H) (As O4)5'
_chemical_formula_sum 'H1 As5 Cs3 Fe5 O22'
_exptl_crystal_density_diffrn 4.45
_citation_title

;
Cs3 Fe5 O (O H) (As O4)5: a novel iron(III) arsenate containing four-, five-
and six-coordinated iron atoms
;
loop_
_citation_id
_citation_journal_full
_citation_year
_citation_journal_volume
_citation_page_first
_citation_page_last
_citation_journal_id_ASTM
primary 'Chemical Communications (Cambridge, United Kingdom)' 1996 1996 1061
1062 CHCOFS
loop_
_citation_author_citation_id
_citation_author_name
primary 'Wang, B.'
primary 'Wang, S.-L.'
primary 'Lii, K.-H.'
_cell_length_a 10.2086(3)
_cell_length_b 10.3528(3)
_cell_length_c 11.7330(3)
_cell_angle_alpha 110.917(1)
_cell_angle_beta 105.642(1)
_cell_angle_gamma 101.990(1)
_cell_volume 1049.78
_cell_formula_units_Z 2
_space_group_name_H-M_alt 'P -1'
_space_group_IT_number 2
loop_
_space_group_symop_id
_space_group_symop_operation_xyz
1 '-x, -y, -z'
2 'x, y, z'
loop_
_atom_type_symbol
_atom_type_oxidation_number
Cs1+ 1
Fe3+ 3
As5+ 5
O2- -2
H1+ 1
loop_
_atom_site_label
_atom_site_type_symbol
_atom_site_symmetry_multiplicity
_atom_site_Wyckoff_symbol
_atom_site_fract_x
_atom_site_fract_y
_atom_site_fract_z
_atom_site_U_iso_or_equiv
_atom_site_occupancy
Cs1 Cs1+ 2 i 0.43605(5) 0.15710(6) 0.14193(5) . 1.
Cs2 Cs1+ 2 i 0.27017(6) 0.39507(6) 0.98358(5) . 1.
Cs3 Cs1+ 2 i 0.14722(7) 0.01654(7) 0.37075(6) . 1.
Fe1 Fe3+ 2 i 0.47222(11) 0.14774(12) 0.73408(10) . 1.
Fe2 Fe3+ 1 a 0 0 0 . 1.
Fe3 Fe3+ 2 i 0.15231(11) 0.61459(12) 0.76023(10) . 1.
Fe4 Fe3+ 1 h 0.5 0.5 0.5 . 1.
Fe5 Fe3+ 2 i 0.02338(12) 0.34239(11) 0.49335(10) . 1.
Fe6 Fe3+ 2 i 0.12442(12) 0.62948(12) 0.26838(11) . 1.
As1 As5+ 2 i 0.17562(8) 0.33790(8) 0.26402(7) . 1.
As2 As5+ 2 i 0.16600(8) 0.75882(8) 0.06469(7) . 1.
As3 As5+ 2 i 0.35024(8) 0.41190(8) 0.69736(8) . 1.
As4 As5+ 2 i 0.19849(8) 0.94163(8) 0.78047(7) . 1.
As5 As5+ 2 i 0.42962(8) 0.80967(8) 0.50372(8) . 1.
O1 O2- 2 i 0.31404(57) 0.33607(60) 0.37610(51) . 1.
O2 O2- 2 i 0.03647(56) 0.33037(61) 0.31561(53) . 1.
O3 O2- 2 i 0.13493(58) 0.1978(6) 0.11781(53) . 1.
O4 O2- 2 i 0.21520(58) 0.48786(58) 0.23628(53) . 1.
O5 O2- 2 i 0.15336(56) 0.92074(55) 0.07906(54) . 1.
O6 O2- 2 i 0.10150(58) 0.62537(60) 0.90980(53) . 1.
O7 O2- 2 i 0.06532(60) 0.69598(61) 0.13978(53) . 1.
O8 O2- 2 i 0.33717(62) 0.76701(66) 0.13269(59) . 1.
O9 O2- 2 i 0.47821(59) 0.49426(61) 0.65907(54) . 1.
O10 O2- 2 i 0.19518(59) 0.29926(60) 0.56621(55) . 1.
O11 O2- 2 i 0.31640(59) 0.55088(60) 0.80398(52) . 1.
O12 O2- 2 i 0.41413(59) 0.32531(59) 0.78515(53) . 1.
O13 O2- 2 i 0.34429(64) 0.07997(63) 0.81587(59) . 1.
O14 O2- 2 i 0.10544(58) 0.86298(57) 0.61490(52) . 1.
O15 O2- 2 i 0.26002(56) 0.82216(58) 0.82921(54) . 1.
O16 O2- 2 i 0.10142(59) 0.01207(62) 0.86469(56) . 1.
O17 O2- 2 i 0.40185(56) 0.65881(58) 0.52887(54) . 1.
O18 O2- 2 i 0.48870(64) 0.95313(62) 0.65086(53) . 1.
O19 O2- 2 i 0.27134(59) 0.80438(65) 0.40786(57) . 1.
O20 O2- 2 i 0.54844(56) 0.82989(60) 0.42850(53) . 1.
O21 O2- 2 i 0.13974(53) 0.57224(59) 0.57105(50) . 1.
O22 O2- 2 i 0.00987(57) 0.40942(56) 0.66493(52) . 1.
H1 H1+ 2 i 0.2121 0.5831 0.5306 0.04 1.
loop_
_atom_site_aniso_label
_atom_site_aniso_type_symbol
_atom_site_aniso_U_11
_atom_site_aniso_U_22
_atom_site_aniso_U_33
_atom_site_aniso_U_12
_atom_site_aniso_U_13
_atom_site_aniso_U_23
Cs1 Cs1+ 0.02064(30) 0.02644(31) 0.02768(31) 0.00617(23) 0.00700(23) 0.01056(25)
Cs2 Cs1+ 0.03595(35) 0.03449(34) 0.02848(32) 0.01398(27) 0.01752(27) 0.01536(27)
Cs3 Cs1+ 0.03798(38) 0.02696(33) 0.03019(33) 0.01809(28) -.00338(27) -.00185(26)
Fe1 Fe3+ 0.01579(55) 0.01386(53) 0.01676(53) 0.00359(44) 0.00436(44) 0.00514(45)
Fe2 Fe3+ 0.01638(77) 0.01331(72) 0.01621(75) 0.00311(62) 0.00277(63) 0.00356(63)
Fe3 Fe3+ 0.01735(57) 0.01397(53) 0.01519(53) 0.00493(45) 0.00558(45) 0.00401(45)
Fe4 Fe3+ 0.01769(76) 0.01314(72) 0.01470(73) 0.00491(61) 0.00525(63) 0.00459(62)
Fe5 Fe3+ 0.01791(56) 0.01320(54) 0.01335(52) 0.00390(44) 0.00449(45) 0.00165(45)
Fe6 Fe3+ 0.02037(56) 0.01807(55) 0.01960(57) 0.00646(46) 0.00830(48) 0.00771(48)
As1 As5+ 0.01487(40) 0.01283(38) 0.01474(39) 0.00259(31) 0.00497(32) 0.00296(32)
As2 As5+ 0.01653(40) 0.01340(38) 0.01423(38) 0.00376(32) 0.00400(32) 0.00375(31)
As3 As5+ 0.0166(4) 0.01424(38) 0.01594(39) 0.00497(32) 0.00623(32) 0.00550(32)
As4 As5+ 0.01616(41) 0.01255(38) 0.01553(40) 0.00296(31) 0.00499(32) 0.00330(32)
As5 As5+ 0.01964(43) 0.01337(40) 0.0160(4) 0.00485(32) 0.00602(33) 0.00431(32)
O1 O2- 0.0198(27) 0.0184(26) 0.0142(25) 0.0039(22) 0.0021(22) 0.0063(23)
O2 O2- 0.0141(26) 0.0245(29) 0.0221(28) 0.0061(24) 0.0037(23) 0.0095(25)
O3 O2- 0.0233(29) 0.0189(28) 0.0180(26) 0.0040(24) 0.0109(24) 0.0041(24)
O4 O2- 0.0217(28) 0.0169(27) 0.0209(27) 0.0054(23) 0.0070(24) 0.0083(24)
O5 O2- 0.0188(27) 0.0093(25) 0.0247(27) 0.0036(21) 0.0063(23) 0.0051(23)
O6 O2- 0.0194(27) 0.0193(28) 0.0194(27) 0.0030(23) 0.0052(23) 0.0076(24)
O7 O2- 0.0214(29) 0.0227(29) 0.0194(28) 0.0056(24) 0.0043(24) 0.0088(24)
O8 O2- 0.0213(29) 0.0266(32) 0.0263(31) 0.0097(25) 0.0015(25) 0.0099(27)
O9 O2- 0.0201(28) 0.0230(29) 0.0203(28) 0.0071(23) 0.0061(23) 0.0111(24)
O10 O2- 0.0232(29) 0.0167(26) 0.0227(28) 0.0088(23) 0.0077(24) 0.0046(23)
O11 O2- 0.0227(28) 0.0178(26) 0.0190(27) 0.0106(23) 0.0069(23) 0.0055(23)
O12 O2- 0.0242(29) 0.0203(27) 0.0212(27) 0.0127(23) 0.0097(23) 0.0105(23)
O13 O2- 0.0266(31) 0.0173(28) 0.0291(31) 0.0024(25) 0.0102(27) 0.0080(26)
O14 O2- 0.0179(27) 0.0142(26) 0.0179(26) -0.0017(22) 0.0037(22) 0.0017(22)
O15 O2- 0.0168(27) 0.0146(26) 0.0256(29) 0.0050(22) 0.0040(24) 0.0079(24)
O16 O2- 0.0218(29) 0.0230(29) 0.0261(29) 0.0111(24) 0.0114(25) 0.0108(25)
O17 O2- 0.0166(26) 0.0152(26) 0.0236(28) 0.0023(22) 0.0060(23) 0.0086(23)
O18 O2- 0.0324(33) 0.0159(27) 0.0151(26) 0.0075(24) 0.0075(25) -0.0017(22)
O19 O2- 0.0152(27) 0.0258(31) 0.0239(28) 0.0064(24) -0.0021(23) 0.0100(26)
O20 O2- 0.0183(27) 0.0218(28) 0.0176(26) 0.0043(23) 0.0066(23) 0.0076(24)
O21 O2- 0.0147(26) 0.0203(27) 0.0168(26) 0.0053(22) 0.0060(22) 0.0091(23)
O22 O2- 0.0186(27) 0.0129(25) 0.0176(26) 0.0004(21) 0.0039(22) 0.0038(22)
#End of TTdata_81666-ICSD
#
