(C) 2022 by FIZ Karlsruhe - Leibniz Institute for Information Infrastructure.  All rights reserved.
data_72578-ICSD
_database_code_ICSD 72578
_audit_creation_date 1994-01-19
_chemical_name_common 'Strontium triiron(III) tris(phosphate) hydrogenphosphate'
_chemical_formula_structural 'Sr Fe3 (P O4)3 (H P O4)'
_chemical_formula_sum 'H1 Fe3 O16 P4 Sr1'
_exptl_crystal_density_diffrn 3.52
_diffrn_ambient_temperature 297.
_citation_title

;
Hydrothermal synthesis and structural characterisation of SrFe3(PO4)3(HPO4),
an iron(III) phosphate containing FeO5 trigonal bipyramids and dimers of
face-sharing FeO6 octahedra
;
loop_
_citation_id
_citation_journal_full
_citation_year
_citation_journal_volume
_citation_page_first
_citation_page_last
_citation_journal_id_ASTM
primary
'Journal of the Chemical Society, Dalton Transactions: Inorganic Chemistry ' 1993 1993 577 580 JCDTBI
loop_
_citation_author_citation_id
_citation_author_name
primary 'Lii, K.-H.'
primary 'Dong, T.-Y.'
primary 'Cheng, C.-Y.'
primary 'Wang, S.-L.'
_cell_length_a 8.476(2)
_cell_length_b 7.298(1)
_cell_length_c 19.501(3)
_cell_angle_alpha 90.
_cell_angle_beta 94.96(2)
_cell_angle_gamma 90.
_cell_volume 1201.77
_cell_formula_units_Z 4
_space_group_name_H-M_alt 'P 1 21/c 1'
_space_group_IT_number 14
loop_
_space_group_symop_id
_space_group_symop_operation_xyz
1 'x, -y+1/2, z+1/2'
2 '-x, -y, -z'
3 '-x, y+1/2, -z+1/2'
4 'x, y, z'
loop_
_atom_type_symbol
_atom_type_oxidation_number
Sr2+ 2
Fe3+ 3
P5+ 5
O2- -2
H1+ 1
O2- -2
loop_
_atom_site_label
_atom_site_type_symbol
_atom_site_symmetry_multiplicity
_atom_site_Wyckoff_symbol
_atom_site_fract_x
_atom_site_fract_y
_atom_site_fract_z
_atom_site_U_iso_or_equiv
_atom_site_occupancy
Sr1 Sr2+ 4 e 0.20233(4) 0.06355(5) 0.56242(2) . 1.
Fe1 Fe3+ 4 e 0.78271(6) 0.43437(7) 0.41806(3) . 1.
Fe2 Fe3+ 4 e 0.72980(6) 0.99346(7) 0.21400(3) . 1.
Fe3 Fe3+ 4 e 0.26386(6) 0.89729(7) 0.30904(3) . 1.
P1 P5+ 4 e 0.4473(1) 0.2068(1) 0.39924(1) . 1.
P2 P5+ 4 e 0.6151(1) 0.6826(1) 0.31051(5) . 1.
P3 P5+ 4 e -.0154(1) 0.2062(1) 0.31803(5) . 1.
P4 P5+ 4 e 0.8857(1) 0.3188(1) 0.56824(5) . 1.
O1 O2- 4 e -.0527(3) 0.6169(4) 0.4057(1) . 1.
O2 O2- 4 e 0.8100(3) 0.4623(4) 0.5161(1) . 1.
O3 O2- 4 e -.0980(3) 0.2342(4) 0.3847(1) . 1.
O4 O2- 4 e 0.6394(3) 0.6315(4) 0.3881(1) . 1.
O5 O2- 4 e 0.6193(3) 0.2311(4) 0.4280(2) . 1.
O6 O2- 4 e 0.8525(3) 0.2001(4) 0.2581(1) . 1.
O7 O2- 4 e 0.7778(3) 0.1875(3) 0.1278(1) . 1.
O8 O2- 4 e 0.5631(3) 0.1959(4) 0.2128(1) . 1.
O9 O2- 4 e 0.5921(3) 0.8453(4) 0.1568(2) . 1.
O10 O2- 4 e -.0896(3) 0.8671(4) 0.1934(1) . 1.
O11 O2- 4 e 0.6926(3) 0.8716(4) 0.3020(1) . 1.
O12 O2- 4 e 0.3067(3) 0.0336(4) 0.2288(2) . 1.
O13 O2- 4 e 0.4184(3) 0.0099(4) 0.3766(2) . 1.
O14 O2- 4 e 0.0713(3) 0.0234(4) 0.3251(1) . 1.
O15 O2- 4 e 0.3358(4) 0.2379(4) 0.4594(2) . 1.
H1 H1+ 4 e 0.281(7) 0.351(7) 0.463(3) 0.031(15) 1.
O16 O2- 4 e -.0979(3) 0.1353(4) 0.5335(1) . 1.
loop_
_atom_site_aniso_label
_atom_site_aniso_type_symbol
_atom_site_aniso_U_11
_atom_site_aniso_U_22
_atom_site_aniso_U_33
_atom_site_aniso_U_12
_atom_site_aniso_U_13
_atom_site_aniso_U_23
Sr1 Sr2+ 0.01213(19) 0.00803(20) 0.00861(19) -.00016(14) 0.00001(13) -.00089(13)
Fe1 Fe3+ 0.00745(26) 0.00741(28) 0.00475(26) 0.00008(20) 0.00096(19) -.00045(20)
Fe2 Fe3+ 0.00646(26) 0.00689(28) 0.00643(26) 0.00017(20) 0.00030(19) -.0011(2)
Fe3 Fe3+ 0.00716(27) 0.00642(26) 0.00617(27) 0.00021(19) 0.00132(20) 0.00023(20)
P1 P5+ 0.00683(45) 0.00761(47) 0.00666(45) -.00024(35) 0.00023(34) -.00017(36)
P2 P5+ 0.00531(41) 0.00723(45) 0.00446(42) -.00005(34) 0.00064(32) -.00029(34)
P3 P5+ 0.00594(43) 0.00764(47) 0.00494(42) -.00012(34) 0.00111(33) -.00008(34)
P4 P5+ 0.00709(44) 0.00714(46) 0.00470(41) -.00008(34) 0.00160(33) 0.00015(34)
O1 O2- 0.0077(13) 0.0123(14) 0.0117(13) -0.0021(11) 0.0022(10) 0.0003(11)
O2 O2- 0.0131(13) 0.0094(13) 0.0046(12) 0.0006(11) 0.0011(10) 0.0017(11)
O3 O2- 0.0163(14) 0.0105(14) 0.0074(12) 0.0023(11) 0.0065(11) -0.0001(11)
O4 O2- 0.0080(12) 0.0094(13) 0.0050(12) 0.0013(10) 0.00007(95) 0.0019(10)
O5 O2- 0.0077(13) 0.0106(14) 0.0152(14) -0.0019(11) -0.0022(11) 0.0011(11)
O6 O2- 0.0101(13) 0.0075(13) 0.0080(13) -0.0002(10) -0.0014(10) -0.0006(10)
O7 O2- 0.0104(13) 0.0056(13) 0.0073(13) 0.00222(99) 0.0042(10) -0.0009(10)
O8 O2- 0.0052(12) 0.0100(14) 0.0069(12) 0.00141(98) 0.00024(96) -0.0013(10)
O9 O2- 0.0131(14) 0.0128(14) 0.0126(14) -0.0017(12) -0.0008(11) -0.0031(12)
O10 O2- 0.0117(14) 0.0147(14) 0.0114(14) 0.0065(12) 0.0020(11) -0.0002(12)
O11 O2- 0.0079(12) 0.0078(12) 0.0082(13) -0.0017(10) 0.00173(99) -0.0005(10)
O12 O2- 0.0111(13) 0.0112(14) 0.0134(14) -0.0014(11) 0.0045(11) 0.0046(11)
O13 O2- 0.0129(14) 0.0100(14) 0.0121(14) -0.0029(11) 0.0010(11) -0.0049(11)
O14 O2- 0.0127(14) 0.0140(14) 0.0072(13) 0.0067(11) 0.0025(11) 0.0002(11)
O15 O2- 0.0192(16) 0.0135(15) 0.0145(14) 0.0035(13) 0.0101(12) 0.0015(12)
O16 O2- 0.0147(14) 0.0088(13) 0.0083(13) 0.0008(11) -0.0003(10) -0.0028(11)
#End of TTdata_72578-ICSD
#
