(C) 2022 by FIZ Karlsruhe - Leibniz Institute for Information Infrastructure.  All rights reserved.
data_45177-ICSD
_database_code_ICSD 45177
_audit_creation_date 2022-08-01
_chemical_name_common 'Lithium tetralanthanum dinitride heptaiodide'
_chemical_formula_structural 'Li La4 N2 I7'
_chemical_formula_sum 'I7 La4 Li1 N2'
_chemical_name_structure_type LiLa4N2I7
_exptl_crystal_density_diffrn 5.46
_diffrn_ambient_temperature 100.
_citation_title

;
LiLa$_4$N$_2$I$_7$ as the first lithium-containing nitride halide of the
lanthanides. Synthesis, crystal structure and spectroscopic characterization
;
loop_
_citation_id
_citation_journal_full
_citation_year
_citation_journal_volume
_citation_page_first
_citation_page_last
_citation_journal_id_ASTM
primary 'Solid State Sciences' 2020 99 '' '' SSSCFJ
loop_
_citation_author_citation_id
_citation_author_name
primary 'Schurz, Christian M.'
primary 'Niewa, Rainer'
primary 'Schleid, Thomas'
_cell_length_a 13.7417(9)
_cell_length_b 12.1345(8)
_cell_length_c 10.7991(7)
_cell_angle_alpha 90.
_cell_angle_beta 90.
_cell_angle_gamma 90.
_cell_volume 1800.73
_cell_formula_units_Z 4
_space_group_name_H-M_alt 'P n m a'
_space_group_IT_number 62
loop_
_space_group_symop_id
_space_group_symop_operation_xyz
1 'x+1/2, y, -z+1/2'
2 'x, -y+1/2, z'
3 '-x+1/2, y+1/2, z+1/2'
4 '-x, -y, -z'
5 '-x+1/2, -y, z+1/2'
6 '-x, y+1/2, -z'
7 'x+1/2, -y+1/2, -z+1/2'
8 'x, y, z'
loop_
_atom_type_symbol
_atom_type_oxidation_number
Li1+ 1
La3+ 3
N3- -3
I1- -1
loop_
_atom_site_label
_atom_site_type_symbol
_atom_site_symmetry_multiplicity
_atom_site_Wyckoff_symbol
_atom_site_fract_x
_atom_site_fract_y
_atom_site_fract_z
_atom_site_U_iso_or_equiv
_atom_site_occupancy
Li1 Li1+ 4 c 0.4332(19) 0.25 0.959(2) 0.022(5) 1
La1 La3+ 4 c 0.08979(4) 0.25 0.87239(6) 0.00646(11) 1
La2 La3+ 4 c 0.39314(4) 0.25 0.40647(6) 0.00669(11) 1
La3 La3+ 8 d 0.09144(3) 0.01185(3) 0.12062(4) 0.00652(8) 1
N1 N3- 8 d 0.4975(5) 0.1238(6) 0.5077(6) 0.0085(11) 1
I1 I1- 4 c 0.04171(5) 0.25 0.31578(7) 0.00964(13) 1
I2 I1- 4 c 0.25430(5) 0.25 0.09282(7) 0.00958(13) 1
I3 I1- 4 c 0.29890(5) 0.25 0.68995(7) 0.00924(13) 1
I4 I1- 8 d 0.03380(4) 0.07973(4) 0.64841(5) 0.00999(10) 1
I5 I1- 8 d 0.25744(4) 0.02226(4) 0.38817(5) 0.01045(10) 1
loop_
_atom_site_aniso_label
_atom_site_aniso_type_symbol
_atom_site_aniso_U_11
_atom_site_aniso_U_22
_atom_site_aniso_U_33
_atom_site_aniso_U_12
_atom_site_aniso_U_13
_atom_site_aniso_U_23
Li1 Li1+ 0.021(12) 0.028(13) 0.017(11) 0. 0.006(9) 0.
La1 La3+ 0.0077(2) 0.0068(2) 0.0049(2) 0. 0.00056(18) 0.
La2 La3+ 0.0075(2) 0.0061(2) 0.0065(2) 0. -0.00062(18) 0.
La3 La3+ 0.00836(17) 0.00633(17) 0.00487(16) -0.00001(13) -0.00080(13)
0.00012(13)
N1 N3- 0.012(3) 0.006(3) 0.008(3) 0.000(2) 0.000(2) 0.000(2)
I1 I1- 0.0116(3) 0.0116(3) 0.0058(3) 0. -0.0002(2) 0.
I2 I1- 0.0094(3) 0.0118(3) 0.0076(3) 0. -0.0001(2) 0.
I3 I1- 0.0097(3) 0.0096(3) 0.0084(3) 0. 0.0025(2) 0.
I4 I1- 0.0126(2) 0.0112(2) 0.0062(2) -0.00205(17) 0.00092(16) -0.00165(16)
I5 I1- 0.0108(2) 0.0099(2) 0.0106(2) -0.00167(17) -0.00299(16) 0.00069(16)
#End of TTdata_45177-ICSD
#
