(C) 2022 by FIZ Karlsruhe - Leibniz Institute for Information Infrastructure.  All rights reserved.
data_74048-ICSD
_database_code_ICSD 74048
_audit_creation_date 1995-01-10
_chemical_name_common 'Strontium triiron bis(diphosphate)'
_chemical_formula_structural 'Sr Fe3 (P2 O7)2'
_chemical_formula_sum 'Fe3 O14 P4 Sr1'
_chemical_name_structure_type CaNi3(P2O7)2
_exptl_crystal_density_diffrn 3.86
_diffrn_ambient_temperature 296.
_citation_title

;
A M3 (P2 O7)2 (A= alkaline-earth metals; M= Fe, Co, Ni): diphosphates
containing infinite chains of edge-sharing M O6 octahedra
;
loop_
_citation_id
_citation_journal_full
_citation_year
_citation_journal_volume
_citation_page_first
_citation_page_last
_citation_journal_id_ASTM
primary 'Inorganic Chemistry' 1993 32 4373 4377 INOCAJ
loop_
_citation_author_citation_id
_citation_author_name
primary 'Lii, K.-H.'
primary 'Shih, P.-F.'
primary 'Chen, T.-M.'
_cell_length_a 7.553(1)
_cell_length_b 7.7477(8)
_cell_length_c 9.5796(8)
_cell_angle_alpha 90.
_cell_angle_beta 112.11(1)
_cell_angle_gamma 90.
_cell_volume 519.36
_cell_formula_units_Z 2
_space_group_name_H-M_alt 'P 1 21/c 1'
_space_group_IT_number 14
loop_
_space_group_symop_id
_space_group_symop_operation_xyz
1 'x, -y+1/2, z+1/2'
2 '-x, -y, -z'
3 '-x, y+1/2, -z+1/2'
4 'x, y, z'
loop_
_atom_type_symbol
_atom_type_oxidation_number
Sr2+ 2
Fe2+ 2
P5+ 5
O2- -2
loop_
_atom_site_label
_atom_site_type_symbol
_atom_site_symmetry_multiplicity
_atom_site_Wyckoff_symbol
_atom_site_fract_x
_atom_site_fract_y
_atom_site_fract_z
_atom_site_U_iso_or_equiv
_atom_site_occupancy
Sr1 Sr2+ 2 b 0.5 0 0 0.0105(2) 1.
Fe1 Fe2+ 4 e 0.18942(7) 0.62318(6) 0.02882(6) 0.0081(2) 1.
Fe2 Fe2+ 2 a 0 0 0 0.0077(3) 1.
P1 P5+ 4 e 0.8868(1) 0.7045(1) 0.19313(9) 0.0069(3) 1.
P2 P5+ 4 e 0.6030(1) 0.4447(1) 0.2032(1) 0.0070(3) 1.
O1 O2- 4 e 0.4030(4) 0.4876(3) 0.1954(3) 0.0104(9) 1.
O2 O2- 4 e 0.0003(4) 0.2159(3) 0.1381(3) 0.0112(8) 1.
O3 O2- 4 e 0.9717(3) 0.5772(3) 0.1140(3) 0.0102(8) 1.
O4 O2- 4 e 0.6834(4) 0.6287(3) 0.1792(3) 0.0097(8) 1.
O5 O2- 4 e 0.6180(3) 0.3198(3) 0.0869(3) 0.0101(8) 1.
O6 O2- 4 e 0.2747(4) 0.8873(3) 0.1356(3) 0.0099(8) 1.
O7 O2- 4 e 0.8420(4) 0.8746(3) 0.1096(3) 0.0099(8) 1.
#End of TTdata_74048-ICSD
#
