(C) 2022 by FIZ Karlsruhe - Leibniz Institute for Information Infrastructure.  All rights reserved.
data_261176-ICSD
_database_code_ICSD 261176
_audit_creation_date 2011-02-01
_chemical_name_common 'Dilithium trigallium hexakis(tellurite(IV)) hexahydrate'
_chemical_formula_structural 'H Li2 Ga3 (Te O3)6 (H2 O)6'
_chemical_formula_sum 'H13 Ga3 Li2 O24 Te6'
_exptl_crystal_density_diffrn 3.65
_diffrn_ambient_temperature 293.
_citation_title

;
A series of new ternary and quaternary compounds in the Li(I)-Ga(III)-Te(IV)-O
System
;
loop_
_citation_id
_citation_journal_full
_citation_year
_citation_journal_volume
_citation_page_first
_citation_page_last
_citation_journal_id_ASTM
primary 'Inorganic Chemistry' 2010 49 11573 11580 INOCAJ
loop_
_citation_author_citation_id
_citation_author_name
primary 'Kong Fang'
primary 'Xu Xiang'
primary 'Mao Jiang Gao'
_cell_length_a 9.2149(11)
_cell_length_b 9.2149(11)
_cell_length_c 25.730(8)
_cell_angle_alpha 90.
_cell_angle_beta 90.
_cell_angle_gamma 120.
_cell_volume 1892.13
_cell_formula_units_Z 3
_space_group_name_H-M_alt 'R -3 H'
_space_group_IT_number 148
loop_
_space_group_symop_id
_space_group_symop_operation_xyz
1 'x-y, x, -z'
2 'y, -x+y, -z'
3 '-x, -y, -z'
4 '-x+y, -x, z'
5 '-y, x-y, z'
6 'x, y, z'
7 'x-y+2/3, x+1/3, -z+1/3'
8 'y+2/3, -x+y+1/3, -z+1/3'
9 '-x+2/3, -y+1/3, -z+1/3'
10 '-x+y+2/3, -x+1/3, z+1/3'
11 '-y+2/3, x-y+1/3, z+1/3'
12 'x+2/3, y+1/3, z+1/3'
13 'x-y+1/3, x+2/3, -z+2/3'
14 'y+1/3, -x+y+2/3, -z+2/3'
15 '-x+1/3, -y+2/3, -z+2/3'
16 '-x+y+1/3, -x+2/3, z+2/3'
17 '-y+1/3, x-y+2/3, z+2/3'
18 'x+1/3, y+2/3, z+2/3'
loop_
_atom_type_symbol
_atom_type_oxidation_number
Li1+ 1
Ga3+ 3
Te4+ 4
O2- -2
H1+ 1
loop_
_atom_site_label
_atom_site_type_symbol
_atom_site_symmetry_multiplicity
_atom_site_Wyckoff_symbol
_atom_site_fract_x
_atom_site_fract_y
_atom_site_fract_z
_atom_site_U_iso_or_equiv
_atom_site_occupancy
Li1 Li1+ 6 c 0. 0. 0.3036(13) 0.028(6) 1
Ga1 Ga3+ 6 c 0. 0. 0.19247(5) 0.0082(3) 1
Ga2 Ga3+ 3 a 0.6667 0.3333 0.3333 0.0077(4) 1
Te1 Te4+ 18 f 0.37811(6) 0.16217(6) 0.236652(17) 0.01032(18) 1
O1 O2- 18 f 0.1776(7) 0.1677(7) 0.23901(19) 0.0129(11) 1
O2 O2- 18 f 0.4820(7) 0.3224(7) 0.18346(19) 0.0143(12) 1
O3 O2- 18 f 0.4841(7) 0.3182(7) 0.2896(2) 0.0150(12) 1
O4 O2- 18 f 0.0115(10) 0.1924(11) 0.3442(4) 0.069(3) 1
H1 H1+ 18 f 0.0104 0.1719 0.3764 0.103 1
H2 H1+ 18 f -0.0728 0.2025 0.3367 0.103 1
loop_
_atom_site_aniso_label
_atom_site_aniso_type_symbol
_atom_site_aniso_U_11
_atom_site_aniso_U_22
_atom_site_aniso_U_33
_atom_site_aniso_U_12
_atom_site_aniso_U_13
_atom_site_aniso_U_23
Li1 Li1+ 0.012(8) 0.012(8) 0.061(19) 0.006(4) 0. 0.
Ga1 Ga3+ 0.0088(4) 0.0088(4) 0.0070(6) 0.0044(2) 0. 0.
Ga2 Ga3+ 0.0088(6) 0.0088(6) 0.0056(8) 0.0044(3) 0. 0.
Te1 Te4+ 0.0094(3) 0.0108(3) 0.0101(3) 0.0046(2) -0.00026(17) -0.00002(18)
O1 O2- 0.011(3) 0.015(3) 0.011(2) 0.004(2) 0.000(2) -0.004(2)
O2 O2- 0.015(3) 0.017(3) 0.011(2) 0.009(2) 0.004(2) 0.003(2)
O3 O2- 0.016(3) 0.018(3) 0.012(2) 0.009(2) -0.007(2) -0.005(2)
O4 O2- 0.031(5) 0.055(6) 0.120(8) 0.022(4) -0.005(5) -0.052(6)
#End of TTdata_261176-ICSD
#
