(C) 2022 by FIZ Karlsruhe - Leibniz Institute for Information Infrastructure.  All rights reserved.
data_403148-ICSD
_database_code_ICSD 403148
_audit_creation_date 2020-08-01
_chemical_name_common 'α-Barium borate hydroxide'
_chemical_formula_structural 'Ba3 (B10 O17 (O H)2)'
_chemical_formula_sum 'H2 B10 Ba3 O19'
_exptl_crystal_density_diffrn 3.84
_diffrn_ambient_temperature 296.
_citation_title

;
Edge-sharing BO$_4$ tetrahedra in the structure of hydrothermally synthesized
barium borate. α-Ba$_3$[B$_{10}$O$_{17}$(OH)$_2$]
;
loop_
_citation_id
_citation_journal_full
_citation_year
_citation_journal_volume
_citation_page_first
_citation_page_last
_citation_journal_id_ASTM
primary 'Inorganic Chemistry' 2019 58 4085 4088 INOCAJ
loop_
_citation_author_citation_id
_citation_author_name
primary 'Jen, I-Hsuan'
primary 'Lee, Yi-Chang'
primary 'Tsai, Cheng-En'
primary 'Lii, Kwang-Hwa'
_cell_length_a 6.6315(3)
_cell_length_b 23.9227(10)
_cell_length_c 9.0173(4)
_cell_angle_alpha 90.
_cell_angle_beta 91.8780(10)
_cell_angle_gamma 90.
_cell_volume 1429.76
_cell_formula_units_Z 4
_space_group_name_H-M_alt 'P 1 21/n 1'
_space_group_IT_number 14
loop_
_space_group_symop_id
_space_group_symop_operation_xyz
1 '-x+1/2, y+1/2, -z+1/2'
2 '-x, -y, -z'
3 'x+1/2, -y+1/2, z+1/2'
4 'x, y, z'
loop_
_atom_type_symbol
_atom_type_oxidation_number
Ba2+ 2
B3+ 3
O2- -2
H1+ 1
O2- -2
H1+ 1
O2- -2
loop_
_atom_site_label
_atom_site_type_symbol
_atom_site_symmetry_multiplicity
_atom_site_Wyckoff_symbol
_atom_site_fract_x
_atom_site_fract_y
_atom_site_fract_z
_atom_site_U_iso_or_equiv
_atom_site_occupancy
Ba1 Ba2+ 4 e 0.162194(19) 0.166791(5) 0.068039(14) 0.00862(4) 1
Ba2 Ba2+ 4 e -0.245080(19) 0.159884(5) 0.411353(14) 0.00865(4) 1
Ba3 Ba2+ 4 e 0.925159(19) 0.440682(5) 1.233477(14) 0.00956(4) 1
B1 B3+ 4 e 0.4243(4) 0.46328(10) 0.4548(3) 0.0106(4) 1
B2 B3+ 4 e 0.4283(4) 0.46103(10) 0.7495(3) 0.0078(4) 1
B3 B3+ 4 e 0.1400(4) 0.42320(9) 0.5893(3) 0.0071(4) 1
B4 B3+ 4 e 0.7265(4) 0.42842(10) 0.8860(3) 0.0071(4) 1
B5 B3+ 4 e 0.6437(4) 0.52714(10) 0.8797(3) 0.0088(4) 1
B6 B3+ 4 e -0.0625(3) 0.29202(10) 0.2551(3) 0.0069(4) 1
B7 B3+ 4 e 0.3117(4) 0.16843(10) 0.5000(3) 0.0072(4) 1
B8 B3+ 4 e 0.0736(4) 0.21357(10) 0.6711(3) 0.0075(4) 1
B9 B3+ 4 e 0.1675(4) 0.32942(10) 0.4624(3) 0.0076(4) 1
B10 B3+ 4 e 0.2758(3) 0.24844(9) 0.3158(3) 0.0061(4) 1
O1 O2- 4 e 0.2122(2) 0.45596(6) 0.46055(17) 0.0096(3) 1
O2 O2- 4 e 0.5320(3) 0.41814(7) 0.38403(19) 0.0144(3) 1
H1 H1+ 4 e 0.4575 0.4129 0.2978 0.05 1
O3 O2- 4 e 0.5221(2) 0.47735(6) 0.60337(17) 0.0087(3) 1
O4 O2- 4 e 0.2207(2) 0.44652(6) 0.72836(17) 0.0077(3) 1
O5 O2- 4 e 0.4470(2) 0.50881(6) 0.84784(17) 0.0090(3) 1
O6 O2- 4 e 0.5539(2) 0.41321(6) 0.80738(17) 0.0082(3) 1
O7 O2- 4 e -0.0799(2) 0.42310(7) 0.58222(19) 0.0117(3) 1
H2 H1+ 4 e -0.1372 0.4555 0.5941 0.05 1
O8 O2- 4 e 0.2108(2) 0.36389(6) 0.58101(17) 0.0090(3) 1
O9 O2- 4 e 0.8369(2) 0.39315(6) 0.97124(17) 0.0087(3) 1
O10 O2- 4 e 0.7904(2) 0.48399(6) 0.88813(18) 0.0107(3) 1
O11 O2- 4 e 0.7009(2) 0.57981(6) 0.88146(18) 0.0113(3) 1
O12 O2- 4 e -0.0368(2) 0.32058(7) 0.11693(17) 0.0094(3) 1
O13 O2- 4 e 0.0604(2) 0.24262(6) 0.27582(16) 0.0062(3) 1
O14 O2- 4 e 0.2211(2) 0.22416(6) 0.77856(17) 0.0083(3) 1
O15 O2- 4 e -0.0105(2) 0.33333(6) 0.38124(17) 0.0086(3) 1
O16 O2- 4 e 0.3567(2) 0.19468(6) 0.35918(17) 0.0077(3) 1
O17 O2- 4 e 0.1103(2) 0.18092(6) 0.55081(17) 0.0088(3) 1
O18 O2- 4 e -0.1191(2) 0.23377(6) 0.67720(17) 0.0095(3) 1
O19 O2- 4 e 0.3114(2) 0.29082(6) 0.43234(17) 0.0093(3) 1
loop_
_atom_site_aniso_label
_atom_site_aniso_type_symbol
_atom_site_aniso_U_11
_atom_site_aniso_U_22
_atom_site_aniso_U_33
_atom_site_aniso_U_12
_atom_site_aniso_U_13
_atom_site_aniso_U_23
Ba1 Ba2+ 0.00812(6) 0.00978(6) 0.00795(6) 0.00056(4) 0.00006(4) -0.00180(4)
Ba2 Ba2+ 0.00628(6) 0.01027(6) 0.00939(6) 0.00134(4) 0.00009(4) -0.00054(4)
Ba3 Ba2+ 0.00815(6) 0.01052(6) 0.00991(7) 0.00031(4) -0.00123(4) -0.00121(4)
B1 B3+ 0.0097(11) 0.0120(11) 0.0102(11) 0.0002(9) -0.0005(9) 0.0030(9)
B2 B3+ 0.0081(10) 0.0080(10) 0.0072(10) 0.0000(8) -0.0007(8) 0.0005(8)
B3 B3+ 0.0069(10) 0.0066(10) 0.0077(10) 0.0001(8) -0.0014(8) -0.0006(8)
B4 B3+ 0.0073(10) 0.0077(10) 0.0065(10) -0.0006(8) 0.0012(8) -0.0004(8)
B5 B3+ 0.0095(11) 0.0093(10) 0.0075(10) 0.0004(8) 0.0002(8) -0.0010(8)
B6 B3+ 0.0053(10) 0.0085(10) 0.0068(10) -0.0005(8) -0.0011(8) 0.0011(8)
B7 B3+ 0.0060(10) 0.0084(10) 0.0070(10) -0.0001(8) -0.0012(8) -0.0011(8)
B8 B3+ 0.0072(10) 0.0081(10) 0.0071(10) -0.0008(8) -0.0002(8) 0.0004(8)
B9 B3+ 0.0088(11) 0.0066(10) 0.0074(10) -0.0010(8) 0.0002(8) 0.0001(8)
B10 B3+ 0.0056(10) 0.0065(9) 0.0062(10) 0.0015(7) -0.0012(8) 0.0004(8)
O1 O2- 0.0099(7) 0.0116(7) 0.0072(7) -0.0018(6) -0.0004(6) 0.0020(6)
O2 O2- 0.0155(8) 0.0144(8) 0.0132(8) 0.0025(6) -0.0007(6) 0.0008(6)
O3 O2- 0.0086(7) 0.0113(7) 0.0062(7) -0.0013(5) 0.0008(5) 0.0015(6)
O4 O2- 0.0070(7) 0.0094(7) 0.0066(7) -0.0015(5) -0.0003(5) -0.0024(5)
O5 O2- 0.0088(7) 0.0079(7) 0.0101(7) -0.0001(5) -0.0009(6) -0.0028(6)
O6 O2- 0.0088(7) 0.0069(7) 0.0089(7) 0.0001(5) -0.0013(5) 0.0010(6)
O7 O2- 0.0057(7) 0.0114(7) 0.0180(8) 0.0003(5) -0.0004(6) -0.0030(6)
O8 O2- 0.0110(7) 0.0062(6) 0.0094(7) 0.0013(5) -0.0023(6) -0.0022(5)
O9 O2- 0.0097(7) 0.0064(6) 0.0097(7) -0.0001(5) -0.0028(6) 0.0005(6)
O10 O2- 0.0073(7) 0.0081(7) 0.0168(8) -0.0005(5) -0.0007(6) 0.0008(6)
O11 O2- 0.0120(7) 0.0074(7) 0.0144(8) -0.0017(6) -0.0001(6) -0.0017(6)
O12 O2- 0.0060(7) 0.0150(7) 0.0072(7) -0.0017(6) -0.0019(6) 0.0054(6)
O13 O2- 0.0052(7) 0.0060(6) 0.0074(7) 0.0003(5) -0.0014(5) -0.0008(5)
O14 O2- 0.0046(7) 0.0125(7) 0.0078(7) 0.0013(5) 0.0003(5) -0.0031(6)
O15 O2- 0.0075(7) 0.0086(7) 0.0096(7) 0.0018(5) -0.0021(6) -0.0023(6)
O16 O2- 0.0082(7) 0.0073(7) 0.0078(7) 0.0025(5) 0.0018(5) 0.0015(5)
O17 O2- 0.0056(7) 0.0133(7) 0.0075(7) 0.0004(6) -0.0001(5) -0.0029(6)
O18 O2- 0.0067(7) 0.0130(7) 0.0087(7) 0.0022(6) -0.0002(6) -0.0023(6)
O19 O2- 0.0070(7) 0.0093(7) 0.0114(7) 0.0020(5) -0.0032(6) -0.0045(6)
#End of TTdata_403148-ICSD
#
