(C) 2022 by FIZ Karlsruhe - Leibniz Institute for Information Infrastructure.  All rights reserved.
data_63258-ICSD
_database_code_ICSD 63258
_audit_creation_date 1989-12-04
_audit_update_record 1991-04-20
_chemical_name_common 'Dicesium tetramolybdatohexaphosphate'
_chemical_formula_structural 'Cs2 (Mo4 P6 O26)'
_chemical_formula_sum 'Cs2 Mo4 O26 P6'
_exptl_crystal_density_diffrn 3.72
_citation_title

;
Layer and tunnel structure in new molybdenophosphates: Cs2 Mo4 P6 O26 and M4
Mo8 P12 O52 (M = Cs, Rb, K, Tl).
;
loop_
_citation_id
_citation_journal_full
_citation_year
_citation_journal_volume
_citation_page_first
_citation_page_last
_citation_journal_id_ASTM
primary 'Journal of Solid State Chemistry' 1987 69 320 328 JSSCBI
loop_
_citation_author_citation_id
_citation_author_name
primary 'Lii, K.-H.'
primary 'Haushalter, R.C.'
_cell_length_a 7.479(3)
_cell_length_b 8.461(5)
_cell_length_c 9.018(2)
_cell_angle_alpha 90.
_cell_angle_beta 101.99(3)
_cell_angle_gamma 90.
_cell_volume 558.21
_cell_formula_units_Z 1
_space_group_name_H-M_alt 'P 1 2/c 1'
_space_group_IT_number 13
loop_
_space_group_symop_id
_space_group_symop_operation_xyz
1 'x, -y, z+1/2'
2 '-x, -y, -z'
3 '-x, y, -z+1/2'
4 'x, y, z'
loop_
_atom_type_symbol
_atom_type_oxidation_number
Cs1+ 1
Mo5+ 5
P5+ 5
O2- -2
loop_
_atom_site_label
_atom_site_type_symbol
_atom_site_symmetry_multiplicity
_atom_site_Wyckoff_symbol
_atom_site_fract_x
_atom_site_fract_y
_atom_site_fract_z
_atom_site_B_iso_or_equiv
_atom_site_occupancy
Cs1 Cs1+ 2 f 0.5 0.2414(2) 0.75 5.04(7) 1.
Mo1 Mo5+ 4 g 0.7813(1) 0.23356(7) 0.42812(8) 0.67(3) 1.
P1 P5+ 2 e 0 -.0441(3) 0.25 0.8(1) 1.
P2 P5+ 4 g 0.8453(3) 0.5606(2) 0.6346(3) 0.80(7) 1.
O1 O2- 4 g 0.5711(9) 0.1602(7) 0.4141(8) 1.6(2) 1.
O2 O2- 4 g 0.879(1) 0.0555(8) 0.3286(8) 1.9(3) 1.
O3 O2- 4 g 0.7296(8) 0.3596(7) 0.2312(7) 1.2(2) 1.
O4 O2- 4 g 0.0589(9) 0.3269(7) 0.4499(7) 1.3(2) 1.
O5 O2- 4 g 0.8748(8) 0.1502(7) 0.6351(7) 1.3(2) 1.
O6 O2- 4 g 0.7304(8) 0.4382(7) 0.5350(7) 1.2(2) 1.
O7 O2- 2 e 0 0.466(1) 0.75 1.0(3) 1.
#End of TTdata_63258-ICSD
#
