(C) 2022 by FIZ Karlsruhe - Leibniz Institute for Information Infrastructure.  All rights reserved.
data_80977-ICSD
_database_code_ICSD 80977
_audit_creation_date 1997-05-13
_chemical_name_common 'Rubidium oxotin(IV) arsenate(V)'
_chemical_formula_structural 'Rb (Sn O) (As O4)'
_chemical_formula_sum 'As1 O5 Rb1 Sn1'
_chemical_name_structure_type KTiOPO4#KFePO4F
_exptl_crystal_density_diffrn 4.75
_diffrn_ambient_temperature 298.
_citation_title 'Synthesis and characterization of A Sn As O4 (A = K and Rb)'
loop_
_citation_id
_citation_journal_full
_citation_year
_citation_journal_volume
_citation_page_first
_citation_page_last
_citation_journal_id_ASTM
primary 'Journal of the Chinese Chemical Society (Weinheim, Germany)' 1995 42
913 918 JCCTAC
loop_
_citation_author_citation_id
_citation_author_name
primary 'Lin, K.-J.'
primary 'Lin, H.-C.'
primary 'Lii, K.-H.'
_cell_length_a 13.567(4)
_cell_length_b 6.791(2)
_cell_length_c 10.891(2)
_cell_angle_alpha 90.
_cell_angle_beta 90.
_cell_angle_gamma 90.
_cell_volume 1003.43
_cell_formula_units_Z 8
_space_group_name_H-M_alt 'P n a 21'
_space_group_IT_number 33
loop_
_space_group_symop_id
_space_group_symop_operation_xyz
1 'x+1/2, -y+1/2, z'
2 '-x+1/2, y+1/2, z+1/2'
3 '-x, -y, z+1/2'
4 'x, y, z'
loop_
_atom_type_symbol
_atom_type_oxidation_number
Rb1+ 1
Sn4+ 4
As5+ 5
O2- -2
loop_
_atom_site_label
_atom_site_type_symbol
_atom_site_symmetry_multiplicity
_atom_site_Wyckoff_symbol
_atom_site_fract_x
_atom_site_fract_y
_atom_site_fract_z
_atom_site_U_iso_or_equiv
_atom_site_occupancy
Rb1 Rb1+ 4 a 0.6196(2) 0.2185(3) 0.3017 . 1.
Rb2 Rb1+ 4 a 0.8888(2) 0.3085(3) 0.0549(4) . 1.
Sn1 Sn4+ 4 a 0.7504(1) 0.7467(3) 0.2347(6) . 1.
Sn2 Sn4+ 4 a 0.6257(1) 0.5003(3) 0.9845(6) . 1.
As1 As5+ 4 a 0.4980(2) 0.6682(2) 0.2314(5) . 1.
As2 As5+ 4 a 0.8240(1) 0.4972(49) 0.4846(5) . 1.
O1 O2- 4 a 0.5137(17) 0.5203(33) 0.1118(17) 0.011(5) 1.
O2 O2- 4 a 0.0121(17) 0.0190(34) 0.8562(18) 0.013(5) 1.
O3 O2- 4 a 0.5969(11) 0.8088(25) 0.2590(19) 0.008(4) 1.
O4 O2- 4 a 0.0992(11) 0.3191(23) 0.7139(19) 0.005(3) 1.
O5 O2- 4 a 0.8972(13) 0.6933(25) 0.5192(18) 0.013(4) 1.
O6 O2- 4 a 0.3962(14) 0.1954(26) 0.4604(19) 0.014(4) 1.
O7 O2- 4 a 0.7782(15) 0.0267(29) 0.6198(18) 0.015(4) 1.
O8 O2- 4 a 0.2711(13) 0.5498(25) 0.3617(15) 0.003(3) 1.
O9 O2- 4 a 0.7492(17) 0.4721(36) 0.6094(21) 0.025(6) 1.
O10 O2- 4 a 0.2441(13) 0.9601(16) 0.3705(16) 0.005(4) 1.
loop_
_atom_site_aniso_label
_atom_site_aniso_type_symbol
_atom_site_aniso_U_11
_atom_site_aniso_U_22
_atom_site_aniso_U_33
_atom_site_aniso_U_12
_atom_site_aniso_U_13
_atom_site_aniso_U_23
Rb1 Rb1+ 0.023(1) 0.009(1) 0.041(1) 0.004(1) -.010(1) -.005(1)
Rb2 Rb1+ 0.013(1) 0.017(1) 0.043(2) 0.004(1) 0.000(1) -.004(1)
Sn1 Sn4+ 0.0066(4) 0.0055(4) 0.0051(4) -.0007(4) -.0009(4) -.0005(5)
Sn2 Sn4+ 0.0056(4) 0.0053(5) 0.0050(4) 0.000(1) 0.001(1) 0.0005(5)
As1 As5+ 0.0045(6) 0.0055(7) 0.0052(7) 0.001(1) 0.0001(6) -.004(2)
As2 As5+ 0.0091(7) 0.0043(7) 0.0059(7) 0.000(1) -.003(2) 0.0016(7)
#End of TTdata_80977-ICSD
#
