(C) 2022 by FIZ Karlsruhe - Leibniz Institute for Information Infrastructure.  All rights reserved.
data_417723-ICSD
_database_code_ICSD 417723
_audit_creation_date 2008-08-01
_audit_update_record 2021-02-01
_chemical_name_common 'Barium decakis(monooxomolybdate(V)) octakis(diphosphate)'
_chemical_formula_structural 'Ba0.5 (Mo O)5 (P2 O7)4'
_chemical_formula_sum 'Ba0.5 Mo5 O33 P8'
_chemical_name_structure_type Li(MoO)5(P2O7)4
_exptl_crystal_density_diffrn 3.41
_diffrn_ambient_temperature 293.
_citation_title

;
A large series of isotypic Mo(V) diphosphates with a tunnel structure from A
(Mo O)10 (P2 O7)8 with A = Ba, Sr, Ca, Cd, Pb, to A (Mo O)5 (P2 O7)4 with A =
Ag, Li, Na, K
;
loop_
_citation_id
_citation_journal_full
_citation_year
_citation_journal_volume
_citation_page_first
_citation_page_last
_citation_journal_id_ASTM
primary 'Journal of Solid State Chemistry' 2007 180 2044 2052 JSSCBI
loop_
_citation_author_citation_id
_citation_author_name
primary 'Leclaire, A.'
primary 'Caignaert, V.'
primary 'Raveau, B.'
_cell_length_a 32.41540(10)
_cell_length_b 4.83230(10)
_cell_length_c 23.01850(10)
_cell_angle_alpha 90
_cell_angle_beta 134.3300(10)
_cell_angle_gamma 90
_cell_volume 2579.21
_cell_formula_units_Z 4
_space_group_name_H-M_alt 'C 1 2/c 1'
_space_group_IT_number 15
loop_
_space_group_symop_id
_space_group_symop_operation_xyz
1 'x, -y, z+1/2'
2 '-x, -y, -z'
3 '-x, y, -z+1/2'
4 'x, y, z'
5 'x+1/2, -y+1/2, z+1/2'
6 '-x+1/2, -y+1/2, -z'
7 '-x+1/2, y+1/2, -z+1/2'
8 'x+1/2, y+1/2, z'
loop_
_atom_type_symbol
_atom_type_oxidation_number
Mo5+ 5
Ba2+ 2
P5+ 5
O2- -2
loop_
_atom_site_label
_atom_site_type_symbol
_atom_site_symmetry_multiplicity
_atom_site_Wyckoff_symbol
_atom_site_fract_x
_atom_site_fract_y
_atom_site_fract_z
_atom_site_U_iso_or_equiv
_atom_site_occupancy
Mo1 Mo5+ 8 f 0.09219(4) 0.84884(17) 0.03827(6) 0.0131(7) 1
Mo2 Mo5+ 8 f 0.19635(4) 0.10402(15) 0.35358(6) 0.0118(6) 1
Mo3 Mo5+ 4 e 0 0.7467(3) 0.25 0.0107(10) 0.8444(14)
Mo4 Mo5+ 4 e 0 0.5060(15) 0.25 0.0107(10) 0.1556(14)
Ba1 Ba2+ 8 f 0.24049(12) 0.7522(7) 0.2460(2) 0.040(2) 0.25
P1 P5+ 8 f 0.09899(11) 0.5935(5) 0.24806(17) 0.0115(18) 1
P2 P5+ 8 f 0.12462(11) 0.3496(5) 0.16375(17) 0.015(2) 1
P3 P5+ 8 f 0.10100(11) 0.3460(5) -0.05014(16) 0.0112(18) 1
P4 P5+ 8 f 0.21055(10) 0.1088(5) 0.08581(17) 0.0150(19) 1
O1 O2- 8 f 0.02645(17) 0.7256(14) -0.0156(5) 0.036(2) 1
O2 O2- 8 f 0.0910(3) 1.1134(13) 0.1040(4) 0.0197(16) 1
O3 O2- 8 f 0.1381(3) 0.5777(13) 0.1323(5) 0.0230(17) 1
O4 O2- 8 f 0.1106(3) 0.6319(14) -0.0154(5) 0.0233(17) 1
O5 O2- 8 f 0.0701(3) 1.1607(14) -0.0413(4) 0.0182(16) 1
O6 O2- 8 f 0.1798(3) 1.0145(12) 0.1096(4) 0.0143(15) 1
O7 O2- 8 f 0.2067(4) -0.0204(15) 0.4309(5) 0.034(2) 1
O8 O2- 8 f 0.2589(3) 0.3926(14) 0.4170(5) 0.0237(17) 1
O9 O2- 8 f 0.1265(3) -0.1264(14) 0.2639(4) 0.0208(16) 1
O10 O2- 8 f 0.1377(3) 0.4026(12) 0.3177(4) 0.0119(14) 1
O11 O2- 8 f 0.2488(3) -0.1524(14) 0.3607(5) 0.0296(19) 1
O12 O2- 8 f 0.1800(3) 0.2649(12) 0.2485(4) 0.0147(15) 1
O13 O2- 4 e 0 1.0919(3) 0.25 0.055(4) 0.8444(14)
O14 O2- 4 e 0 0.1608(15) 0.25 0.055(4) 0.1556(14)
O15 O2- 8 f 0.0395(3) 0.6351(14) 0.2182(4) 0.0220(16) 1
O16 O2- 8 f 0.0725(3) 0.6396(14) 0.3624(5) 0.0224(16) 1
O17 O2- 8 f 0.0805(3) 0.4714(11) 0.1679(4) 0.0127(15) 1
O18 O2- 8 f 0.1625(3) 0.2229(12) -0.0049(4) 0.0170(16) 1
loop_
_atom_site_aniso_label
_atom_site_aniso_type_symbol
_atom_site_aniso_U_11
_atom_site_aniso_U_22
_atom_site_aniso_U_33
_atom_site_aniso_U_12
_atom_site_aniso_U_13
_atom_site_aniso_U_23
Mo1 Mo5+ 0.0174(5) 0.0036(4) 0.0197(6) -0.0016(3) 0.0135(5) -0.0010(4)
Mo2 Mo5+ 0.0095(4) 0.0047(4) 0.0137(5) -0.0004(3) 0.0054(4) 0.0006(4)
Mo3 Mo5+ 0.0080(7) 0.0134(7) 0.0084(8) 0 0.0048(7) 0
Mo4 Mo5+ 0.0080(7) 0.0134(7) 0.0084(8) 0 0.0048(7) 0
Ba1 Ba2+ 0.0174(16) 0.070(2) 0.024(2) 0.0057(14) 0.0112(16) 0.0197(16)
P1 P5+ 0.0069(13) 0.0089(12) 0.0124(16) -0.0028(9) 0.0044(13) -0.0056(11)
P2 P5+ 0.0177(15) 0.0117(12) 0.0129(16) 0.0054(11) 0.0099(14) 0.0051(11)
P3 P5+ 0.0125(13) 0.0087(12) 0.0135(15) -0.0012(10) 0.0096(13) -0.0027(11)
P4 P5+ 0.0086(13) 0.0078(12) 0.0212(17) -0.0005(10) 0.0077(14) 0.0010(12)
#End of TTdata_417723-ICSD
#
