(C) 2022 by FIZ Karlsruhe - Leibniz Institute for Information Infrastructure.  All rights reserved.
data_32923-ICSD
_database_code_ICSD 32923
_audit_creation_date 2022-02-01
_chemical_name_common 'Disodium nonalead di(μ-oxo)bis(ditellurate(VI))'
_chemical_formula_structural 'Na2 Pb9 O2 (Te2 O10)2'
_chemical_formula_sum 'Na2 O22 Pb9 Te4'
_chemical_name_structure_type Pb5(Sb2MnO11)
_exptl_crystal_density_diffrn 8.02
_diffrn_ambient_temperature 296.
_citation_title

;
Hydrothermal synthesis, crystal structures, and X-ray photoelectron
spectroscopy of lead tellurium(IV) and tellurium(VI) oxycompounds:
Ba$_3$PbTe$_6$O$_{16}$ and Na$_2$Pb$_9$(μ$_6$-O)$_2$(Te$_2$O$_{10}$)$_2$
;
loop_
_citation_id
_citation_journal_full
_citation_year
_citation_journal_volume
_citation_page_first
_citation_page_last
_citation_journal_id_ASTM
primary 'Dalton Transactions' 2021 50 8189 8195 DTARAF
loop_
_citation_author_citation_id
_citation_author_name
primary 'Li, Han-Ying'
primary 'Lii, Kwang-Hwa'
_cell_length_a 8.9630(2)
_cell_length_b 11.3476(3)
_cell_length_c 11.2907(3)
_cell_angle_alpha 90
_cell_angle_beta 90
_cell_angle_gamma 90
_cell_volume 1148.36
_cell_formula_units_Z 2
_space_group_name_H-M_alt 'C m c m'
_space_group_IT_number 63
loop_
_space_group_symop_id
_space_group_symop_operation_xyz
1 '-x, y, -z+1/2'
2 '-x, -y, z+1/2'
3 '-x, y, z'
4 '-x, -y, -z'
5 'x, -y, z+1/2'
6 'x, y, -z+1/2'
7 'x, -y, -z'
8 'x, y, z'
9 '-x+1/2, y+1/2, -z+1/2'
10 '-x+1/2, -y+1/2, z+1/2'
11 '-x+1/2, y+1/2, z'
12 '-x+1/2, -y+1/2, -z'
13 'x+1/2, -y+1/2, z+1/2'
14 'x+1/2, y+1/2, -z+1/2'
15 'x+1/2, -y+1/2, -z'
16 'x+1/2, y+1/2, z'
loop_
_atom_type_symbol
_atom_type_oxidation_number
Na1+ 1
Pb2+ 2
Te6+ 6
O2- -2
loop_
_atom_site_label
_atom_site_type_symbol
_atom_site_symmetry_multiplicity
_atom_site_Wyckoff_symbol
_atom_site_fract_x
_atom_site_fract_y
_atom_site_fract_z
_atom_site_U_iso_or_equiv
_atom_site_occupancy
Na1 Na1+ 4 c 0.5 0.5797(9) 0.75 0.0118(19) 1
Pb1 Pb2+ 8 f 0.5 0.78154(6) 0.52035(7) 0.0173(2) 1
Pb2 Pb2+ 4 c 0. 0.49823(9) 0.25 0.0221(3) 1
Pb3 Pb2+ 8 g 0.26084(11) 0.71735(9) 0.25 0.0191(3) 0.75
Te1 Te6+ 8 e 0.32339(11) 0.5 0.5 0.0042(2) 1
O1 O2- 8 f 0.5 0.4375(10) 0.5932(10) 0.007(2) 1
O2 O2- 16 h 0.3302(9) 0.6409(7) 0.5934(8) 0.0102(16) 1
O3 O2- 16 h 0.1895(9) 0.5695(7) 0.3915(7) 0.0104(16) 1
O4 O2- 4 c 0. 0.6966(16) 0.25 0.014(4) 1
loop_
_atom_site_aniso_label
_atom_site_aniso_type_symbol
_atom_site_aniso_U_11
_atom_site_aniso_U_22
_atom_site_aniso_U_33
_atom_site_aniso_U_12
_atom_site_aniso_U_13
_atom_site_aniso_U_23
Na1 Na1+ 0.019(5) 0.010(4) 0.007(4) 0. 0. 0.
Pb1 Pb2+ 0.0200(4) 0.0101(3) 0.0219(4) 0. 0. 0.0005(3)
Pb2 Pb2+ 0.0422(7) 0.0093(5) 0.0148(5) 0. 0. 0.
Pb3 Pb2+ 0.0137(4) 0.0240(5) 0.0197(5) -0.0012(4) 0. 0.
Te1 Te6+ 0.0045(5) 0.0045(4) 0.0035(4) 0. 0. -0.0008(3)
O1 O2- 0.007(5) 0.003(5) 0.009(5) 0. 0. -0.002(4)
O2 O2- 0.013(4) 0.006(4) 0.012(4) 0.002(3) 0.002(3) -0.004(3)
O3 O2- 0.010(4) 0.012(4) 0.009(4) 0.003(3) -0.002(3) 0.002(3)
O4 O2- 0.018(9) 0.009(8) 0.013(8) 0. 0. 0.
#End of TTdata_32923-ICSD
#
