(C) 2022 by FIZ Karlsruhe - Leibniz Institute for Information Infrastructure.  All rights reserved.
data_238271-ICSD
_database_code_ICSD 238271
_audit_creation_date 2015-08-01
_chemical_name_common
'Hexapotassium pentakis(uranyl(VI)) pentaoxo bis(arsenate(V))'
_chemical_formula_structural 'K6 ((U O2)5 O5 (As O4)2)'
_chemical_formula_sum 'As2 K6 O23 U5'
_chemical_name_structure_type K6(UO2)5(VO4)2O5
_exptl_crystal_density_diffrn 5.4
_diffrn_ambient_temperature 296.
_citation_title

;
High-temperature, high-pressure hydrothermal synthesis, characterization, and
structural relationships of layered uranyl arsenates
;
loop_
_citation_id
_citation_journal_full
_citation_year
_citation_journal_volume
_citation_page_first
_citation_page_last
_citation_journal_id_ASTM
primary 'Inorganic Chemistry' 2014 53 9065 9072 INOCAJ
loop_
_citation_author_citation_id
_citation_author_name
primary 'Liu, Hsin-Kuan'
primary 'Ramachandran, Eswaran'
primary 'Chen, Yi-Hsin'
primary 'Chang, Wen-Jung'
primary 'Lii, Kwang-Hwa'
_cell_length_a 6.8615(3)
_cell_length_b 24.7017(10)
_cell_length_c 7.1269(3)
_cell_angle_alpha 90.
_cell_angle_beta 98.749(2)
_cell_angle_gamma 90.
_cell_volume 1193.88
_cell_formula_units_Z 2
_space_group_name_H-M_alt 'P 1 21/c 1'
_space_group_IT_number 14
loop_
_space_group_symop_id
_space_group_symop_operation_xyz
1 'x, -y+1/2, z+1/2'
2 '-x, -y, -z'
3 '-x, y+1/2, -z+1/2'
4 'x, y, z'
loop_
_atom_type_symbol
_atom_type_oxidation_number
K1+ 1
U6+ 6
As5+ 5
O2- -2
loop_
_atom_site_label
_atom_site_type_symbol
_atom_site_symmetry_multiplicity
_atom_site_Wyckoff_symbol
_atom_site_fract_x
_atom_site_fract_y
_atom_site_fract_z
_atom_site_U_iso_or_equiv
_atom_site_occupancy
K1 K1+ 4 e -0.36739(19) 0.38536(5) 0.76800(19) 0.0164(3) 1
K2 K1+ 4 e 0.4536(2) 0.54015(5) 0.7337(2) 0.0173(3) 1
K3 K1+ 4 e -0.2424(3) 0.28583(8) 0.3039(3) 0.0409(5) 1
U1 U6+ 4 e 0.09313(3) 0.418704(8) 0.51538(3) 0.00611(6) 1
U2 U6+ 4 e 0.15391(3) 0.356103(8) 0.02925(3) 0.00643(6) 1
U3 U6+ 2 c 0. 0.5 0. 0.00755(8) 1
As1 As5+ 4 e 0.28575(9) 0.29529(2) 0.54672(8) 0.00886(12) 1
O1 O2- 4 e 0.5266(7) 0.28851(19) 0.5807(8) 0.0249(11) 1
O2 O2- 4 e 0.1609(8) 0.23772(18) 0.5292(6) 0.0240(11) 1
O3 O2- 4 e 0.1962(7) 0.33497(17) 0.3563(6) 0.0163(9) 1
O4 O2- 4 e 0.2031(7) 0.33654(17) 0.7117(6) 0.0174(10) 1
O5 O2- 4 e -0.1598(7) 0.39288(19) 0.4643(7) 0.0230(9) 1
O6 O2- 4 e 0.3533(6) 0.44102(18) 0.5643(6) 0.0145(9) 1
O7 O2- 2 a 0. 0.5 0.5 0.0230(9) 1
O8 O2- 4 e 0.0641(6) 0.42719(15) 0.8259(6) 0.0106(8) 1
O9 O2- 4 e -0.1019(6) 0.56917(16) -0.2015(6) 0.0103(8) 1
O10 O2- 4 e -0.1055(6) 0.33947(18) 0.0082(6) 0.0171(10) 1
O11 O2- 4 e 0.4168(6) 0.36918(17) 0.0622(6) 0.0163(9) 1
O12 O2- 4 e 0.2585(6) 0.52171(17) 0.0238(6) 0.0136(9) 1
loop_
_atom_site_aniso_label
_atom_site_aniso_type_symbol
_atom_site_aniso_U_11
_atom_site_aniso_U_22
_atom_site_aniso_U_33
_atom_site_aniso_U_12
_atom_site_aniso_U_13
_atom_site_aniso_U_23
K1 K1+ 0.0144(7) 0.0194(7) 0.0147(7) 0.0028(5) -0.0002(5) 0.0012(5)
K2 K1+ 0.0193(7) 0.0171(7) 0.0163(7) -0.0029(5) 0.0053(6) 0.0000(5)
K3 K1+ 0.0540(12) 0.0465(11) 0.0262(10) -0.0301(9) 0.0185(8) -0.0124(8)
U1 U6+ 0.00858(11) 0.00526(10) 0.00459(11) 0.00106(7) 0.00131(8) 0.00042(7)
U2 U6+ 0.00879(11) 0.00552(10) 0.00497(12) 0.00080(7) 0.00104(8) 0.00031(7)
U3 U6+ 0.00857(15) 0.00487(14) 0.00940(16) 0.00112(10) 0.00193(11) 0.00043(11)
As1 As5+ 0.0153(3) 0.0053(3) 0.0060(3) 0.0019(2) 0.0015(2) 0.0002(2)
O1 O2- 0.015(2) 0.029(3) 0.030(3) 0.007(2) 0.001(2) 0.001(2)
O2 O2- 0.048(3) 0.007(2) 0.017(3) -0.011(2) 0.005(2) -0.0022(18)
O3 O2- 0.027(3) 0.015(2) 0.006(2) 0.0023(18) 0.0012(18) 0.0014(17)
O4 O2- 0.034(3) 0.013(2) 0.005(2) 0.0004(19) 0.0041(18) 0.0010(17)
O5 O2- 0.020(2) 0.0167(19) 0.033(3) 0.0044(16) 0.0071(17) -0.0014(17)
O6 O2- 0.009(2) 0.020(2) 0.015(2) -0.0061(17) 0.0000(17) -0.0017(18)
O7 O2- 0.020(2) 0.0167(19) 0.033(3) 0.0044(16) 0.0071(17) -0.0014(17)
O8 O2- 0.021(2) 0.0062(19) 0.005(2) 0.0008(16) 0.0044(16) 0.0005(15)
O9 O2- 0.014(2) 0.011(2) 0.005(2) 0.0048(16) -0.0001(16) -0.0001(16)
O10 O2- 0.013(2) 0.018(2) 0.020(3) 0.0010(17) -0.0001(18) 0.0066(19)
O11 O2- 0.015(2) 0.017(2) 0.018(2) -0.0012(17) 0.0024(18) -0.0032(18)
O12 O2- 0.011(2) 0.012(2) 0.017(2) 0.0014(17) 0.0027(17) 0.0000(18)
#End of TTdata_238271-ICSD
#
