(C) 2022 by FIZ Karlsruhe - Leibniz Institute for Information Infrastructure.  All rights reserved.
data_173280-ICSD
_database_code_ICSD 173280
_audit_creation_date 2008-08-01
_chemical_name_common 'Dirubidium europium gallium tetrasilicate'
_chemical_formula_structural 'Rb2 Eu Ga Si4 O12'
_chemical_formula_sum 'Eu1 Ga1 O12 Rb2 Si4'
_chemical_name_structure_type Rb2YGaSi4O12
_exptl_crystal_density_diffrn 3.74
_diffrn_ambient_temperature 293.
_citation_title

;
Rb2 RE Ga Si4 O12 (RE = Y, Eu, Gd, Tb): luminescent mixed-anion double layer
silicates containing chains of edge-sharing RE O7 pentagonal bipyramids
;
loop_
_citation_id
_citation_journal_full
_citation_year
_citation_journal_volume
_citation_page_first
_citation_page_last
_citation_journal_id_ASTM
primary 'Inorganic Chemistry' 2008 47 1910 1912 INOCAJ
loop_
_citation_author_citation_id
_citation_author_name
primary 'Lee Cheng shiuan'
primary 'Liao Yueh Chun'
primary 'Hsu Jungtsung'
primary 'Wang Sue Lein'
primary 'Lii Kwanghwa'
_cell_length_a 22.555(2)
_cell_length_b 7.3428(7)
_cell_length_c 14.9288(14)
_cell_angle_alpha 90.
_cell_angle_beta 90.137(2)
_cell_angle_gamma 90.
_cell_volume 2472.45
_cell_formula_units_Z 8
_space_group_name_H-M_alt 'I 1 2/a 1'
_space_group_IT_number 15
loop_
_space_group_symop_id
_space_group_symop_operation_xyz
1 'x+1/2, -y, z'
2 '-x, -y, -z'
3 '-x+1/2, y, -z'
4 'x, y, z'
5 'x, -y+1/2, z+1/2'
6 '-x+1/2, -y+1/2, -z+1/2'
7 '-x, y+1/2, -z+1/2'
8 'x+1/2, y+1/2, z+1/2'
loop_
_atom_type_symbol
_atom_type_oxidation_number
Rb1+ 1
Eu3+ 3
Ga3+ 3
Si4+ 4
O2- -2
loop_
_atom_site_label
_atom_site_type_symbol
_atom_site_symmetry_multiplicity
_atom_site_Wyckoff_symbol
_atom_site_fract_x
_atom_site_fract_y
_atom_site_fract_z
_atom_site_U_iso_or_equiv
_atom_site_occupancy
Rb1 Rb1+ 8 f 0.55828(2) 0.74797(7) 0.02315(4) 0.01849(12) 1
Rb2 Rb1+ 8 f 0.78544(3) -0.01057(11) -0.17006(6) 0.0439(2) 1
Eu1 Eu3+ 8 f 0.519177(10) 0.96732(3) 0.269297(14) 0.00756(8) 1
Ga1 Ga3+ 8 f 0.67991(2) 0.55326(7) -0.09252(4) 0.01204(13) 1
Si1 Si4+ 8 f 0.58302(6) 1.22326(17) 0.09092(8) 0.0081(2) 1
Si2 Si4+ 8 f 0.81194(6) 0.48161(18) -0.11100(9) 0.0084(2) 1
Si3 Si4+ 8 f 0.86879(5) 0.60766(17) -0.29217(8) 0.0081(2) 1
Si4 Si4+ 8 f 0.91148(5) 0.27243(17) -0.38360(8) 0.0077(2) 1
O1 O2- 8 f 0.57750(16) 1.0456(5) 0.1525(2) 0.0133(7) 1
O2 O2- 8 f 0.57576(16) 1.1572(5) -0.0148(2) 0.0141(7) 1
O3 O2- 8 f 0.81902(16) 0.6120(5) -0.0251(2) 0.0161(7) 1
O4 O2- 8 f 0.74384(16) 0.4261(6) -0.1317(3) 0.0186(8) 1
O5 O2- 8 f 0.8394(2) 0.5965(6) -0.1929(3) 0.0248(9) 1
O6 O2- 8 f 0.86251(15) 0.4051(5) -0.3379(3) 0.0158(7) 1
O7 O2- 8 f 0.93641(14) 0.6717(5) -0.2880(2) 0.0124(7) 1
O8 O2- 8 f 0.82388(16) 0.7367(5) -0.3460(3) 0.0212(8) 1
O9 O2- 8 f 0.53783(15) 1.3848(5) 0.1113(2) 0.0137(7) 1
O10 O2- 8 f 0.65229(15) 1.2925(5) 0.0973(3) 0.0160(7) 1
O11 O2- 8 f 0.88986(16) 0.0617(5) -0.3799(2) 0.0153(7) 1
O12 O2- 8 f 0.97205(14) 0.2691(5) -0.3269(2) 0.0103(6) 1
loop_
_atom_site_aniso_label
_atom_site_aniso_type_symbol
_atom_site_aniso_U_11
_atom_site_aniso_U_22
_atom_site_aniso_U_33
_atom_site_aniso_U_12
_atom_site_aniso_U_13
_atom_site_aniso_U_23
Rb1 Rb1+ 0.0145(2) 0.0169(3) 0.0240(3) 0.00108(18) 0.00151(18) -0.00220(18)
Rb2 Rb1+ 0.0331(4) 0.0381(4) 0.0605(5) -0.0119(3) -0.0121(3) -0.0119(3)
Eu1 Eu3+ 0.00817(13) 0.00577(13) 0.00875(13) -0.00077(7) -0.00032(8) -0.00002(7)
Ga1 Ga3+ 0.0100(3) 0.0119(3) 0.0143(3) 0.00008(19) -0.00149(19) 0.00206(19)
Si1 Si4+ 0.0085(6) 0.0077(6) 0.0082(6) -0.0008(4) 0.0002(4) 0.0003(4)
Si2 Si4+ 0.0071(6) 0.0096(6) 0.0085(6) 0.0014(4) -0.0002(4) -0.0005(4)
Si3 Si4+ 0.0071(6) 0.0077(6) 0.0095(6) 0.0005(4) -0.0002(4) 0.0015(4)
Si4 Si4+ 0.0074(6) 0.0074(6) 0.0083(6) -0.0009(4) -0.0019(4) -0.0007(4)
O1 O2- 0.0154(17) 0.0115(17) 0.0128(17) -0.0008(13) 0.0017(13) 0.0023(13)
O2 O2- 0.0209(18) 0.0117(17) 0.0098(16) -0.0006(14) -0.0027(13) 0.0011(13)
O3 O2- 0.0164(17) 0.0207(19) 0.0113(16) -0.0015(14) 0.0006(13) -0.0044(14)
O4 O2- 0.0100(17) 0.0194(19) 0.026(2) 0.0017(14) -0.0032(14) -0.0066(15)
O5 O2- 0.036(2) 0.021(2) 0.0175(19) 0.0004(18) 0.0140(16) 0.0030(16)
O6 O2- 0.0107(16) 0.0128(17) 0.0239(19) -0.0024(13) 0.0023(13) -0.0097(14)
O7 O2- 0.0100(16) 0.0103(16) 0.0167(17) -0.0030(13) -0.0044(13) 0.0004(13)
O8 O2- 0.0138(18) 0.020(2) 0.030(2) 0.0013(15) -0.0093(15) 0.0120(16)
O9 O2- 0.0133(16) 0.0131(17) 0.0148(17) 0.0028(13) 0.0025(13) -0.0014(13)
O10 O2- 0.0104(16) 0.0125(17) 0.025(2) -0.0015(13) -0.0015(14) 0.0001(14)
O11 O2- 0.0190(18) 0.0098(16) 0.0170(18) -0.0032(14) -0.0031(14) -0.0004(13)
O12 O2- 0.0097(15) 0.0088(16) 0.0124(16) 0.0004(12) -0.0047(12) -0.0008(12)
#End of TTdata_173280-ICSD
#
