(C) 2022 by FIZ Karlsruhe - Leibniz Institute for Information Infrastructure.  All rights reserved.
data_202909-ICSD
_database_code_ICSD 202909
_audit_creation_date 1990-06-08
_chemical_name_common 'Dicesium trivanadium(IV) tetraphosphate'
_chemical_formula_structural 'Cs2 V3 P4 O17'
_chemical_formula_sum 'Cs2 O17 P4 V3'
_chemical_name_structure_type Rb2V3P4O17
_exptl_crystal_density_diffrn 3.61
_citation_title
'A New Vanadium(IV) Phosphate with a Tunnel Structure Cs2 V3 P4 O17'
loop_
_citation_id
_citation_journal_full
_citation_year
_citation_journal_volume
_citation_page_first
_citation_page_last
_citation_journal_id_ASTM
primary 'Journal of Solid State Chemistry' 1989 80 127 132 JSSCBI
loop_
_citation_author_citation_id
_citation_author_name
primary 'Lii, K.-H.'
primary 'Wang, Y.-P.'
primary 'Wang, S.-L.'
_cell_length_a 17.613(5)
_cell_length_b 7.328(2)
_cell_length_c 11.600(4)
_cell_angle_alpha 90.
_cell_angle_beta 90.
_cell_angle_gamma 90.
_cell_volume 1497.19
_cell_formula_units_Z 4
_space_group_name_H-M_alt 'P n m a'
_space_group_IT_number 62
loop_
_space_group_symop_id
_space_group_symop_operation_xyz
1 'x+1/2, y, -z+1/2'
2 'x, -y+1/2, z'
3 '-x+1/2, y+1/2, z+1/2'
4 '-x, -y, -z'
5 '-x+1/2, -y, z+1/2'
6 '-x, y+1/2, -z'
7 'x+1/2, -y+1/2, -z+1/2'
8 'x, y, z'
loop_
_atom_type_symbol
_atom_type_oxidation_number
Cs1+ 1
V4+ 4
P5+ 5
O2- -2
loop_
_atom_site_label
_atom_site_type_symbol
_atom_site_symmetry_multiplicity
_atom_site_Wyckoff_symbol
_atom_site_fract_x
_atom_site_fract_y
_atom_site_fract_z
_atom_site_B_iso_or_equiv
_atom_site_occupancy
Cs1 Cs1+ 4 c 0.36527(3) 0.75 0.52696(5) . 1.
Cs2 Cs1+ 4 c 0.31313(3) 0.75 0.14859(5) . 1.
V1 V4+ 4 c 0.40609(7) 0.25 0.6605(1) . 1.
V2 V4+ 4 c 0.30608(7) 0.25 0.3268(1) . 1.
V3 V4+ 8 d 0.4991(4) 0.0312(4) 0.0000(7) . 0.5
P1 P5+ 8 d 0.1695(7) 0.5491(2) 0.3821(1) . 1.
P2 P5+ 8 d 0.46786(7) 0.0482(2) 0.2839(1) . 1.
O1 O2- 8 d 0.3550(2) 0.4347(5) 0.7565(3) . 1.
O2 O2- 4 c 0.1925(3) 0.75 0.4236(5) . 1.
O3 O2- 8 d 0.2418(2) 0.4424(6) 0.3975(3) . 1.
O4 O2- 8 d 0.3866(2) 0.4398(5) 0.3264(3) . 1.
O5 O2- 8 d 0.4846(2) 0.4364(6) 0.6330(3) . 1.
O6 O2- 4 c 0.5036(3) 0.25 0.2861(5) . 1.
O7 O2- 8 d 0.3911(2) 0.9812(6) -.0378(3) . 1.
O8 O2- 8 d 0.4722(2) 0.9737(6) 0.1633(3) . 1.
O9 O2- 4 c 0.4907(3) 0.25 0.0103(5) . 1.
O10 O2- 4 c 0.3571(3) 0.25 0.5456(4) . 1.
O11 O2- 4 c 0.2778(3) 0.25 0.1976(5) . 1.
loop_
_atom_site_aniso_label
_atom_site_aniso_type_symbol
_atom_site_aniso_U_11
_atom_site_aniso_U_22
_atom_site_aniso_U_33
_atom_site_aniso_U_12
_atom_site_aniso_U_13
_atom_site_aniso_U_23
Cs1 Cs1+ 0.0191(3) 0.0232(3) 0.0199(3) 0 -.0042(2) 0
Cs2 Cs1+ 0.0172(3) 0.0243(3) 0.0182(3) 0 0.0009(2) 0
V1 V4+ 0.0075(5) 0.0064(6) 0.0061(6) 0 -.0004(5) 0
V2 V4+ 0.0060(6) 0.0074(6) 0.0107(6) 0 0.0020(5) 0
V3 V4+ 0.0076(7) 0.0048(25) 0.0070(7) -.0009(24) -.0013(5) 0.0057(25)
P1 P5+ 0.0070(6) 0.0052(6) 0.0087(6) 0.0012(5) -.0001(5) 0.0003(5)
P2 P5+ 0.0079(6) 0.0053(6) 0.0077(6) 0.0008(5) 0.0009(5) 0.0001(5)
O1 O2- 0.0157(19) 0.0098(17) 0.0083(17) 0.0008(17) 0.0032(14) 0.0005(15)
O2 O2- 0.0288(33) 0.0062(27) 0.0162(29) 0 0.0139(25) 0
O3 O2- 0.0092(17) 0.0177(20) 0.0157(18) 0.0043(17) 0.0010(14) -.0002(19)
O4 O2- 0.0099(17) 0.0079(18) 0.0171(20) -.0010(15) 0.0031(14) 0.0001(16)
O5 O2- 0.0162(18) 0.0109(19) 0.0123(18) -.0048(16) 0.0012(15) -.0043(17)
O6 O2- 0.0063(24) 0.0093(26) 0.0195(29) 0 0.0010(22) 0
O7 O2- 0.0075(16) 0.0273(24) 0.0174(20) -.0032(17) -.0045(15) 0.0046(19)
O8 O2- 0.0170(18) 0.0133(21) 0.0088(18) -.0046(16) 0.0019(14) -.0043(16)
O9 O2- 0.0217(30) 0.0070(28) 0.0150(29) 0 0.0005(23) 0
O10 O2- 0.0115(25) 0.0171(29) 0.0101(27) 0 -.0032(22) 0
O11 O2- 0.0210(31) 0.0308(37) 0.0151(29) 0 -.0028(25) 0
#End of TTdata_202909-ICSD
#
