(C) 2022 by FIZ Karlsruhe - Leibniz Institute for Information Infrastructure.  All rights reserved.
data_81667-ICSD
_database_code_ICSD 81667
_audit_creation_date 1997-05-13
_audit_update_record 1997-11-10
_chemical_name_common 'Dicesium trigallium triarsenate(V) bis(arsenate(V))'
_chemical_formula_structural 'Cs2 Ga3 (As3 O10) (As O4)2'
_chemical_formula_sum 'As5 Cs2 Ga3 O18'
_exptl_crystal_density_diffrn 4.38
_diffrn_ambient_temperature 296.
_citation_title

;
Synthesis and crystal structure of a novel galloarsenate containing the (As3
O10)(5-) triarsenate anion: Cs2 Ga3 As5 O18
;
loop_
_citation_id
_citation_journal_full
_citation_year
_citation_journal_volume
_citation_page_first
_citation_page_last
_citation_journal_id_ASTM
primary 'Chemical Communications (Cambridge, United Kingdom)' 1996 1996 1137
1138 CHCOFS
loop_
_citation_author_citation_id
_citation_author_name
primary 'Lin, K.-J.'
primary 'Lii, K.-H.'
_cell_length_a 27.0360(7)
_cell_length_b 5.1074(2)
_cell_length_c 12.5112(4)
_cell_angle_alpha 90.
_cell_angle_beta 93.86(1)
_cell_angle_gamma 90.
_cell_volume 1723.67
_cell_formula_units_Z 4
_space_group_name_H-M_alt 'C 1 2/c 1'
_space_group_IT_number 15
loop_
_space_group_symop_id
_space_group_symop_operation_xyz
1 'x, -y, z+1/2'
2 '-x, -y, -z'
3 '-x, y, -z+1/2'
4 'x, y, z'
5 'x+1/2, -y+1/2, z+1/2'
6 '-x+1/2, -y+1/2, -z'
7 '-x+1/2, y+1/2, -z+1/2'
8 'x+1/2, y+1/2, z'
loop_
_atom_type_symbol
_atom_type_oxidation_number
Cs1+ 1
Ga3+ 3
As5+ 5
O2- -2
loop_
_atom_site_label
_atom_site_type_symbol
_atom_site_symmetry_multiplicity
_atom_site_Wyckoff_symbol
_atom_site_fract_x
_atom_site_fract_y
_atom_site_fract_z
_atom_site_B_iso_or_equiv
_atom_site_occupancy
Cs1 Cs1+ 8 f 0.37155(2) 0.05383(11) 0.16077(6) . 1.
Ga1 Ga3+ 4 b 0.5 0 0 . 1.
Ga2 Ga3+ 8 f 0.30107(3) 0.43042(13) 0.88602(5) . 1.
As1 As5+ 8 f 0.27077(3) 0.56898(12) 0.12673(5) . 1.
As2 As5+ 8 f 0.43078(3) 0.50378(15) 0.91488(5) . 1.
As3 As5+ 4 e 0.5 0.75263(19) 0.25 . 1.
O1 O2- 8 f 0.31048(22) 0.4717(10) 0.03611(41) . 1.
O2 O2- 8 f 0.26217(20) 0.8939(10) 0.11589(39) . 1.
O3 O2- 8 f 0.30584(23) 0.4949(11) 0.23900(39) . 1.
O4 O2- 8 f 0.21477(21) 0.42690(94) 0.12040(42) . 1.
O5 O2- 8 f 0.45929(21) 0.3133(11) 0.00765(36) . 1.
O6 O2- 8 f 0.43967(24) 0.8208(11) 0.93717(52) . 1.
O7 O2- 8 f 0.45290(25) 0.4492(12) 0.78586(43) . 1.
O8 O2- 8 f 0.37207(24) 0.4190(15) 0.88821(54) . 1.
O9 O2- 8 f 0.52163(26) 0.9191(13) 0.35466(47) . 1.
loop_
_atom_site_aniso_label
_atom_site_aniso_type_symbol
_atom_site_aniso_U_11
_atom_site_aniso_U_22
_atom_site_aniso_U_33
_atom_site_aniso_U_12
_atom_site_aniso_U_13
_atom_site_aniso_U_23
Cs1 Cs1+ 0.02050(37) 0.03412(38) 0.07853(49) 0.00325(19) 0.00188(29) 0.00527(24)
Ga1 Ga3+ 0.01929(64) 0.02815(57) 0.01551(54) 0.00689(44) 0.00010(42) 0.00107(39)
Ga2 Ga3+ 0.01557(46) 0.01852(41) 0.0122(4) -.00042(25) 0.00123(27) -.00010(23)
As1 As5+ 0.01825(44) 0.01811(41) 0.01309(38) 0.00139(23) 0.00046(26) -.00099(21)
As2 As5+ 0.01240(42) 0.02979(43) 0.01606(39) 0.00432(27) 0.00107(27) 0.00105(24)
As3 As5+ 0.01349(52) 0.02834(55) 0.01462(46) 0 0.00226(35) 0
O1 O2- 0.0248(31) 0.0340(28) 0.0180(24) 0.0081(22) -0.0044(21) -0.0024(19)
O2 O2- 0.0185(26) 0.0215(23) 0.0255(24) -0.0002(19) 0.0004(20) -0.0029(19)
O3 O2- 0.0301(31) 0.0375(27) 0.0096(21) 0.0092(23) -0.0033(19) -0.0034(19)
O4 O2- 0.0168(26) 0.0233(23) 0.0283(25) -0.0022(19) 0.0003(20) 0.0036(19)
O5 O2- 0.0250(27) 0.0355(27) 0.0137(21) 0.0115(23) -0.0020(19) 0.0054(19)
O6 O2- 0.0336(34) 0.0272(28) 0.0481(33) 0.0074(25) -0.0133(27) -0.0042(25)
O7 O2- 0.0318(35) 0.0532(35) 0.0180(25) 0.0171(26) 0.0149(23) 0.0059(22)
O8 O2- 0.0154(30) 0.0713(46) 0.0378(32) -0.0044(26) 0.0009(24) 0.0108(29)
O9 O2- 0.0357(37) 0.0595(39) 0.0233(27) -0.0229(30) 0.0149(25) -0.0131(26)
#End of TTdata_81667-ICSD
#
