(C) 2022 by FIZ Karlsruhe - Leibniz Institute for Information Infrastructure.  All rights reserved.
data_80211-ICSD
_database_code_ICSD 80211
_audit_creation_date 1996-10-14
_chemical_name_common 'Tricesium pentatitanoheptaphosphate'
_chemical_formula_structural 'Cs3 (Ti5 P7 O29)'
_chemical_formula_sum 'Cs3 O29 P7 Ti5'
_exptl_crystal_density_diffrn 3.5
_diffrn_ambient_temperature 296.
_citation_title
'Cs3 Ti5 P7 O29: a titanium(IV) phosphate containing Ti O5 trigonal bipyramids'
loop_
_citation_id
_citation_journal_full
_citation_year
_citation_journal_volume
_citation_page_first
_citation_page_last
_citation_journal_id_ASTM
primary
'Journal of the Chemical Society, Dalton Transactions: Inorganic Chemistry ' 1995 1995 927 930 JCDTBI
loop_
_citation_author_citation_id
_citation_author_name
primary 'Lii, K.-H.'
_cell_length_a 6.307(1)
_cell_length_b 10.330(2)
_cell_length_c 20.230(3)
_cell_angle_alpha 88.65(1)
_cell_angle_beta 84.83(1)
_cell_angle_gamma 72.37(1)
_cell_volume 1250.99
_cell_formula_units_Z 2
_space_group_name_H-M_alt 'P -1'
_space_group_IT_number 2
loop_
_space_group_symop_id
_space_group_symop_operation_xyz
1 '-x, -y, -z'
2 'x, y, z'
loop_
_atom_type_symbol
_atom_type_oxidation_number
Cs1+ 1
Ti4+ 4
P5+ 5
O2- -2
loop_
_atom_site_label
_atom_site_type_symbol
_atom_site_symmetry_multiplicity
_atom_site_Wyckoff_symbol
_atom_site_fract_x
_atom_site_fract_y
_atom_site_fract_z
_atom_site_U_iso_or_equiv
_atom_site_occupancy
Cs1 Cs1+ 1 f 0.5 0 0.5 . 1.
Cs2 Cs1+ 2 i 0.3258(1) 0.55114(6) 0.86023(3) . 1.
Cs3 Cs1+ 2 i 0.4459(1) 0.35077(7) 0.66428(4) . 1.
Cs4 Cs1+ 2 i 0.0698(4) -.0075(3) -.0035(2) . 0.5
Ti1 Ti4+ 2 i 0.2210(3) 0.3633(2) 0.39763(8) . 1.
Ti2 Ti4+ 2 i 0.0645(3) 0.0455(2) 0.66052(8) . 1.
Ti3 Ti4+ 2 i 0.9204(3) 0.2400(2) 0.80640(8) . 1.
Ti4 Ti4+ 2 i 0.3234(3) 0.3089(2) 0.01103(8) . 1.
Ti5 Ti4+ 2 i 0.6191(3) 0.8472(2) 0.83046(8) . 1.
P1 P5+ 2 i 0.2367(4) 0.7200(2) 0.5765(1) . 1.
P2 P5+ 2 i 0.0916(4) 0.9113(2) 0.8063(1) . 1.
P3 P5+ 2 i 0.1754(4) 0.6385(2) 0.0346(1) . 1.
P4 P5+ 2 i 0.3871(4) 0.0521(2) 0.3318(1) . 1.
P5 P5+ 2 i 0.4322(4) 0.1880(2) 0.8500(1) . 1.
P6 P5+ 2 i -.0238(4) 0.3065(2) 0.5425(1) . 1.
P7 P5+ 2 i 0.8595(4) 0.5560(2) 0.7562(1) . 1.
O1 O2- 2 i 0.315(1) 0.8368(7) 0.8311(3) 0.0081(14) 1.
O2 O2- 2 i 0.223(1) 0.2414(7) 0.8117(3) 0.0103(14) 1.
O3 O2- 2 i 0.235(1) -.0349(7) 0.3501(3) 0.0089(14) 1.
O4 O2- 2 i 0.867(1) 0.2894(7) 0.8999(3) 0.0106(15) 1.
O5 O2- 2 i 0.381(1) 0.0363(6) 0.6555(3) 0.0067(14) 1.
O6 O2- 2 i -.072(1) 0.8356(7) 0.8338(3) 0.0084(14) 1.
O7 O2- 2 i 0.087(1) 0.6395(6) 0.6080(3) 0.0070(14) 1.
O8 O2- 2 i 0.385(1) 0.2468(7) 0.9205(4) 0.0112(15) 1.
O9 O2- 2 i 0.504(1) 0.0353(7) 0.8570(3) 0.0116(15) 1.
O10 O2- 2 i -.010(1) 0.6980(7) 0.9914(3) 0.0091(14) 1.
O11 O2- 2 i 0.009(1) 0.0547(7) 0.8354(3) 0.0080(14) 1.
O12 O2- 2 i 0.323(1) 0.1755(7) 0.3793(3) 0.0098(15) 1.
O13 O2- 2 i 0.174(1) 0.8676(7) 0.5931(3) 0.0091(14) 1.
O14 O2- 2 i 0.389(1) 0.6525(7) 0.9981(3) 0.0114(15) 1.
O15 O2- 2 i 0.393(1) 0.1927(7) 0.0729(3) 0.0095(14) 1.
O16 O2- 2 i 0.111(1) -.0880(6) 0.7304(3) 0.0059(14) 1.
O17 O2- 2 i 0.715(1) 0.6597(7) 0.8091(3) 0.0080(14) 1.
O18 O2- 2 i 0.477(1) 0.6413(7) 0.5860(3) 0.0082(14) 1.
O19 O2- 2 i 0.226(1) 0.7075(7) 0.4977(3) 0.0092(14) 1.
O20 O2- 2 i 0.610(1) 0.2380(7) 0.8110(3) 0.0085(14) 1.
O21 O2- 2 i 0.624(1) 0.9014(7) 0.7398(3) 0.0111(15) 1.
O22 O2- 2 i -.028(1) 0.1796(6) 0.7178(3) 0.0065(14) 1.
O23 O2- 2 i 0.807(1) 0.5117(7) 0.9543(4) 0.0127(15) 1.
O24 O2- 2 i 0.815(1) 0.4215(7) 0.7782(3) 0.0111(15) 1.
O25 O2- 2 i 0.878(1) 0.4354(7) 0.5839(3) 0.0100(15) 1.
O26 O2- 2 i 0.041(1) 0.1793(7) 0.5832(3) 0.0080(14) 1.
O27 O2- 2 i 0.165(1) 0.3172(2) 0.4932(3) 0.0082(14) 1.
O28 O2- 2 i 0.256(1) 0.4068(7) 0.3095(3) 0.0083(14) 1.
O29 O2- 2 i 0.099(1) 0.5470(7) 0.7482(4) 0.0138(16) 1.
loop_
_atom_site_aniso_label
_atom_site_aniso_type_symbol
_atom_site_aniso_U_11
_atom_site_aniso_U_22
_atom_site_aniso_U_33
_atom_site_aniso_U_12
_atom_site_aniso_U_13
_atom_site_aniso_U_23
Cs1 Cs1+ 0.02736(62) 0.02632(58) 0.01085(53) 0.00962(46) 0.00567(42) 0.00800(41)
Cs2 Cs1+ 0.02141(42) 0.01079(38) 0.01374(40) -.00608(29) -.00303(28) 0.00074(26)
Cs3 Cs1+ 0.02604(46) 0.01923(42) 0.02729(47) 0.00036(33) 0.00656(34) 0.00086(31)
Cs4 Cs1+ 0.0798(21) 0.01323(83) 0.0546(13) -0.0114(16) -0.0020(19) 0.00501(78)
Ti1 Ti4+ 0.00203(81) 0.00406(79) 0.00365(83) -.00123(64) -.00061(63) 0.00027(63)
Ti2 Ti4+ 0.00256(80) 0.00422(77) 0.00288(81) -.00137(64) 0.00018(63) -.00003(62)
Ti3 Ti4+ 0.00220(81) 0.00249(78) 0.00429(85) -.00008(64) -.00089(64) 0.00038(63)
Ti4 Ti4+ 0.00284(82) 0.00410(79) 0.00389(82) -.00175(65) 0.00005(63) 0.00048(63)
Ti5 Ti4+ 0.00325(83) 0.00343(77) 0.00539(86) -.00169(66) -.00080(65) 0.00053(63)
P1 P5+ 0.0026(11) 0.0041(11) 0.0049(11) -.00098(91) -.00139(88) 0.00084(87)
P2 P5+ 0.0019(11) 0.0034(11) 0.0055(12) -.00139(89) -.00027(89) 0.00094(87)
P3 P5+ 0.0029(11) 0.0060(11) 0.0047(11) -.00144(92) 0.00109(89) -.00136(89)
P4 P5+ 0.0024(11) 0.0045(11) 0.0050(12) -.00142(91) -.00079(90) -.00003(89)
P5 P5+ 0.0014(11) 0.0028(10) 0.0053(12) -.00088(89) 0.00062(89) -.00038(88)
P6 P5+ 0.0048(12) 0.0037(11) 0.0035(12) -.00167(92) -.00194(93) 0.00047(87)
P7 P5+ 0.0060(12) 0.0038(11) 0.0054(12) -.00115(93) -.00139(93) 0.00107(91)
#End of TTdata_80211-ICSD
#
