(C) 2022 by FIZ Karlsruhe - Leibniz Institute for Information Infrastructure.  All rights reserved.
data_65696-ICSD
_database_code_ICSD 65696
_audit_creation_date 1990-06-08
_chemical_name_common 'Sodium vanadium(III) diphosphate'
_chemical_formula_structural 'Na V (P2 O7)'
_chemical_formula_sum 'Na1 O7 P2 V1'
_chemical_name_structure_type Mg2P2O7
_exptl_crystal_density_diffrn 3.19
_diffrn_ambient_temperature 296.
_citation_title 'Structure of Na V P2 O7'
loop_
_citation_id
_citation_journal_full
_citation_year
_citation_journal_volume
_citation_page_first
_citation_page_last
_citation_journal_id_ASTM
primary 'Acta Crystallographica, Section C: Crystal Structure Communications'
1989 45 1417 1418 ACSCEE
loop_
_citation_author_citation_id
_citation_author_name
primary 'Wang, Y.-P.'
primary 'Lii, K.-H.'
primary 'Wang, S.-L.'
_cell_length_a 7.324(5)
_cell_length_b 7.930(4)
_cell_length_c 9.586(6)
_cell_angle_alpha 90.
_cell_angle_beta 111.96(4)
_cell_angle_gamma 90.
_cell_volume 516.35
_cell_formula_units_Z 4
_space_group_name_H-M_alt 'P 1 21/c 1'
_space_group_IT_number 14
loop_
_space_group_symop_id
_space_group_symop_operation_xyz
1 'x, -y+1/2, z+1/2'
2 '-x, -y, -z'
3 '-x, y+1/2, -z+1/2'
4 'x, y, z'
loop_
_atom_type_symbol
_atom_type_oxidation_number
V3+ 3
P5+ 5
Na1+ 1
O2- -2
loop_
_atom_site_label
_atom_site_type_symbol
_atom_site_symmetry_multiplicity
_atom_site_Wyckoff_symbol
_atom_site_fract_x
_atom_site_fract_y
_atom_site_fract_z
_atom_site_B_iso_or_equiv
_atom_site_occupancy
V1 V3+ 4 e 0.23917(6) 0.50786(5) 0.25143(5) . 1.
P1 P5+ 4 e 0.1732(1) 0.21095(9) 0.45535(7) . 1.
P2 P5+ 4 e 0.5738(1) 0.25532(9) 0.45573(7) . 1.
Na1 Na1+ 4 e 0.2131(2) -.0229(2) 0.2065(2) . 1.
O1 O2- 4 e 0.5108(3) 0.0843(2) 0.8618(2) . 1.
O2 O2- 4 e 0.1926(3) 0.1982(2) 0.6183(2) . 1.
O3 O2- 4 e 0.3140(3) -.2119(2) 0.8780(2) . 1.
O4 O2- 4 e 0.3775(3) 0.1550(2) 0.4416(2) . 1.
O5 O2- 4 e 0.0334(3) 0.0862(2) 0.3489(2) . 1.
O6 O2- 4 e 0.1347(3) 0.3921(2) 0.4010(2) . 1.
O7 O2- 4 e 0.6850(3) 0.1376(2) 0.3958(2) . 1.
loop_
_atom_site_aniso_label
_atom_site_aniso_type_symbol
_atom_site_aniso_U_11
_atom_site_aniso_U_22
_atom_site_aniso_U_33
_atom_site_aniso_U_12
_atom_site_aniso_U_13
_atom_site_aniso_U_23
V1 V3+ 0.006(1) 0.005(1) 0.006(1) 0.000(1) 0.002(1) 0.000(1)
P1 P5+ 0.006(1) 0.006(1) 0.006(1) 0.000(1) 0.002(1) 0.001(1)
P2 P5+ 0.006(1) 0.006(1) 0.006(1) 0.000(1) 0.002(1) 0.000(1)
Na1 Na1+ 0.018(1) 0.029(1) 0.027(1) -.003(1) 0.012(1) -.011(1)
O1 O2- 0.009(1) 0.008(1) 0.011(1) -.001(1) 0.003(1) -.002(1)
O2 O2- 0.012(1) 0.008(1) 0.009(1) 0.001(1) 0.004(1) 0.002(1)
O3 O2- 0.012(1) 0.007(1) 0.009(1) 0.000(1) 0.001(1) 0.001(1)
O4 O2- 0.008(1) 0.008(1) 0.013(1) 0.000(1) 0.004(1) 0.001(1)
O5 O2- 0.009(1) 0.011(1) 0.009(1) -.002(1) 0.003(1) -.002(1)
O6 O2- 0.011(1) 0.008(1) 0.011(1) 0.002(1) 0.006(1) 0.003(1)
O7 O2- 0.013(1) 0.011(1) 0.013(1) 0.003(1) 0.006(1) -.001(1)
#End of TTdata_65696-ICSD
#
