(C) 2022 by FIZ Karlsruhe - Leibniz Institute for Information Infrastructure.  All rights reserved.
data_80976-ICSD
_database_code_ICSD 80976
_audit_creation_date 1997-05-13
_chemical_name_common 'Potassium oxotin(IV) arsenate(V)'
_chemical_formula_structural 'K (Sn O) (As O4)'
_chemical_formula_sum 'As1 K1 O5 Sn1'
_chemical_name_structure_type KTiOPO4#KFePO4F
_exptl_crystal_density_diffrn 4.25
_diffrn_ambient_temperature 298.
_citation_title 'Synthesis and characterization of A Sn As O4 (A = K and Rb)'
loop_
_citation_id
_citation_journal_full
_citation_year
_citation_journal_volume
_citation_page_first
_citation_page_last
_citation_journal_id_ASTM
primary 'Journal of the Chinese Chemical Society (Weinheim, Germany)' 1995 42
913 918 JCCTAC
loop_
_citation_author_citation_id
_citation_author_name
primary 'Lin, K.-J.'
primary 'Lin, H.-C.'
primary 'Lii, K.-H.'
_cell_length_a 13.405(4)
_cell_length_b 6.678(1)
_cell_length_c 10.921(2)
_cell_angle_alpha 90.
_cell_angle_beta 90.
_cell_angle_gamma 90.
_cell_volume 977.63
_cell_formula_units_Z 8
_space_group_name_H-M_alt 'P n a 21'
_space_group_IT_number 33
loop_
_space_group_symop_id
_space_group_symop_operation_xyz
1 'x+1/2, -y+1/2, z'
2 '-x+1/2, y+1/2, z+1/2'
3 '-x, -y, z+1/2'
4 'x, y, z'
loop_
_atom_type_symbol
_atom_type_oxidation_number
K1+ 1
Sn4+ 4
As5+ 5
O2- -2
loop_
_atom_site_label
_atom_site_type_symbol
_atom_site_symmetry_multiplicity
_atom_site_Wyckoff_symbol
_atom_site_fract_x
_atom_site_fract_y
_atom_site_fract_z
_atom_site_U_iso_or_equiv
_atom_site_occupancy
K1 K1+ 4 a 0.6284(3) 0.2239(5) 0.3017 . 1.
K2 K1+ 4 a 0.8882(3) 0.3108(6) 0.0662(6) . 1.
Sn1 Sn4+ 4 a 0.7498(1) 0.7470(1) 0.2481(5) . 1.
Sn2 Sn4+ 4 a 0.6248(1) 0.5003(1) 0.9970(5) . 1.
As1 As5+ 4 a 0.4994(1) 0.6667(1) 0.2440(7) . 1.
As2 As5+ 4 a 0.8226(1) 0.4979(2) 0.4975(8) . 1.
O1 O2- 4 a 0.5127(11) 0.5079(13) 0.1298(13) 0.009(3) 1.
O2 O2- 4 a 0.0077(12) 0.0198(14) 0.8740(14) 0.014(3) 1.
O3 O2- 4 a 0.6015(8) 0.8136(17) 0.2725(13) 0.014(3) 1.
O4 O2- 4 a 0.0962(7) 0.3226(17) 0.7299(11) 0.004(2) 1.
O5 O2- 4 a 0.9032(7) 0.6910(14) 0.5251(10) 0.003(2) 1.
O6 O2- 4 a 0.3924(9) 0.1996(14) 0.4675(12) 0.014(2) 1.
O7 O2- 4 a 0.7793(9) 0.0256(19) 0.6399(12) 0.012(2) 1.
O8 O2- 4 a 0.2703(8) 0.5416(15) 0.3774(10) 0.000(2) 1.
O9 O2- 4 a 0.7459(10) 0.4774(20) 0.6237(13) 0.012(2) 1.
O10 O2- 4 a 0.2431(10) 0.9654(20) 0.3878(12) 0.010(2) 1.
loop_
_atom_site_aniso_label
_atom_site_aniso_type_symbol
_atom_site_aniso_U_11
_atom_site_aniso_U_22
_atom_site_aniso_U_33
_atom_site_aniso_U_12
_atom_site_aniso_U_13
_atom_site_aniso_U_23
K1 K1+ 0.043(2) 0.009(1) 0.034(2) 0.004(2) 0.013(2) -.005(2)
K2 K1+ 0.012(1) 0.023(2) 0.060(3) 0.003(1) 0.004(2) -.002(2)
Sn1 Sn4+ 0.0041(3) 0.0042(2) 0.0057(4) -.0007(2) -.0008(2) -.0003(3)
Sn2 Sn4+ 0.0043(3) 0.0032(3) 0.0054(3) -.0007(5) -.0015(8) -.0007(3)
As1 As5+ 0.0038(5) 0.0037(5) 0.0064(9) 0.0012(6) 0.0012(4) 0.0004(9)
As2 As5+ 0.0070(5) 0.0020(5) 0.0073(4) 0.0009(6) -.0009(10) 0.0009(4)
#End of TTdata_80976-ICSD
#
