(C) 2022 by FIZ Karlsruhe - Leibniz Institute for Information Infrastructure.  All rights reserved.
data_249458-ICSD
_database_code_ICSD 249458
_audit_creation_date 2008-08-01
_chemical_name_common 'Pentapotassium dieuropium fluoro tridecaoxotetrasilicate'
_chemical_formula_structural 'K5 Eu2 F Si4 O13'
_chemical_formula_sum 'Eu2 F1 K5 O13 Si4'
_chemical_name_structure_type K5Eu2FSi4O13
_exptl_crystal_density_diffrn 3.68
_diffrn_ambient_temperature 293.
_citation_title

;
Flux synthesis, crsytal structure, and luminescence properties of a new
europium fluoride-silicate: K5 Eu2 F Si4 O13
;
loop_
_citation_id
_citation_journal_full
_citation_year
_citation_journal_volume
_citation_page_first
_citation_page_last
_citation_journal_id_ASTM
primary 'Inorganic Chemistry' 2007 46 3619 3622 INOCAJ
loop_
_citation_author_citation_id
_citation_author_name
primary 'Chiang Peiyun'
primary 'Lin Tsaiwei'
primary 'Dai Jianhung'
primary 'Chang Borchen'
primary 'Lii Kwanghwa'
_cell_length_a 7.1850(2)
_cell_length_b 5.7981(2)
_cell_length_c 18.1675(6)
_cell_angle_alpha 90.
_cell_angle_beta 92.248(2)
_cell_angle_gamma 90.
_cell_volume 756.26
_cell_formula_units_Z 2
_space_group_name_H-M_alt 'P 1 21/m 1'
_space_group_IT_number 11
loop_
_space_group_symop_id
_space_group_symop_operation_xyz
1 'x, -y+1/2, z'
2 '-x, -y, -z'
3 '-x, y+1/2, -z'
4 'x, y, z'
loop_
_atom_type_symbol
_atom_type_oxidation_number
K1+ 1
Eu3+ 3
Si4+ 4
F1- -1
O2- -2
loop_
_atom_site_label
_atom_site_type_symbol
_atom_site_symmetry_multiplicity
_atom_site_Wyckoff_symbol
_atom_site_fract_x
_atom_site_fract_y
_atom_site_fract_z
_atom_site_U_iso_or_equiv
_atom_site_occupancy
K1 K1+ 2 e 0.5241(2) 0.25 0.75094(9) 0.0181(4) 1
K2 K1+ 2 e 0.8676(2) 0.75 0.69533(10) 0.0210(4) 1
K3 K1+ 2 e 0.2041(2) 0.75 0.81341(10) 0.0176(4) 1
K4 K1+ 2 e 0.8091(3) 0.25 0.99775(11) 0.0246(4) 1
K5 K1+ 2 e 0.7466(3) 0.75 0.49089(12) 0.0358(5) 1
Eu1 Eu3+ 2 e 0.66610(5) 0.75 0.89039(2) 0.00818(12) 1
Eu2 Eu3+ 2 e 0.40176(5) 0.75 0.62938(2) 0.00803(12) 1
Si1 Si4+ 2 e 0.6685(3) 0.75 0.08425(11) 0.0087(4) 1
Si2 Si4+ 2 e 0.9596(3) 0.25 0.82647(11) 0.0089(4) 1
Si3 Si4+ 2 e 0.0807(3) 0.25 0.66988(11) 0.0075(4) 1
Si4 Si4+ 2 e 0.2855(3) 0.75 0.42312(11) 0.0072(4) 1
F1 F1- 2 e 0.5395(6) 0.75 0.7573(2) 0.0153(9) 1
O1 O2- 4 f 0.5502(6) 0.5192(7) 0.0944(2) 0.0309(10) 1
O2 O2- 2 e 0.7820(7) 0.75 0.0084(3) 0.0144(11) 1
O3 O2- 2 e 0.8158(7) 0.75 0.1573(3) 0.0158(12) 1
O4 O2- 4 f 0.8723(6) 0.4825(7) 0.8548(2) 0.0338(11) 1
O5 O2- 2 e 0.9317(7) 0.25 0.7363(3) 0.0151(12) 1
O6 O2- 4 f 0.2022(5) 0.4800(6) 0.6726(2) 0.0176(8) 1
O7 O2- 2 e -0.0564(7) 0.25 0.5951(3) 0.0162(12) 1
O8 O2- 4 f 0.3729(5) 0.5195(5) 0.38901(19) 0.0153(8) 1
O9 O2- 2 e 0.3062(7) 0.75 0.5115(3) 0.0168(12) 1
loop_
_atom_site_aniso_label
_atom_site_aniso_type_symbol
_atom_site_aniso_U_11
_atom_site_aniso_U_22
_atom_site_aniso_U_33
_atom_site_aniso_U_12
_atom_site_aniso_U_13
_atom_site_aniso_U_23
K1 K1+ 0.0157(9) 0.0212(8) 0.0176(10) 0. 0.0022(7) 0.
K2 K1+ 0.0131(9) 0.0188(7) 0.0309(11) 0. -0.0016(8) 0.
K3 K1+ 0.0140(9) 0.0209(7) 0.0180(10) 0. 0.0003(7) 0.
K4 K1+ 0.0373(12) 0.0167(8) 0.0205(10) 0. 0.0101(9) 0.
K5 K1+ 0.0586(15) 0.0205(8) 0.0305(12) 0. 0.0276(11) 0.
Eu1 Eu3+ 0.0079(2) 0.00766(17) 0.0091(2) 0. 0.00161(15) 0.
Eu2 Eu3+ 0.0085(2) 0.00843(17) 0.0072(2) 0. 0.00049(15) 0.
Si1 Si4+ 0.0085(10) 0.0112(8) 0.0062(11) 0. -0.0001(8) 0.
Si2 Si4+ 0.0082(10) 0.0124(8) 0.0062(10) 0. 0.0014(8) 0.
Si3 Si4+ 0.0066(10) 0.0098(8) 0.0063(10) 0. 0.0009(8) 0.
Si4 Si4+ 0.0059(10) 0.0094(8) 0.0063(10) 0. -0.0012(8) 0.
F1 F1- 0.013(2) 0.021(2) 0.011(2) 0. 0.0023(18) 0.
O1 O2- 0.038(3) 0.039(2) 0.016(2) -0.030(2) 0.0003(19) 0.0014(19)
O2 O2- 0.014(3) 0.021(2) 0.008(3) 0. 0.002(2) 0.
O3 O2- 0.008(3) 0.031(3) 0.008(3) 0. -0.002(2) 0.
O4 O2- 0.034(3) 0.035(2) 0.032(3) 0.025(2) -0.001(2) -0.014(2)
O5 O2- 0.010(3) 0.031(3) 0.005(3) 0. 0.001(2) 0.
O6 O2- 0.017(2) 0.0155(16) 0.021(2) -0.0069(15) -0.0002(17) 0.0038(15)
O7 O2- 0.008(3) 0.035(3) 0.005(3) 0. 0.002(2) 0.
O8 O2- 0.0158(19) 0.0136(15) 0.016(2) 0.0055(15) -0.0009(16) -0.0002(15)
O9 O2- 0.019(3) 0.023(3) 0.008(3) 0. -0.006(2) 0.
#End of TTdata_249458-ICSD
#
