(C) 2022 by FIZ Karlsruhe - Leibniz Institute for Information Infrastructure.  All rights reserved.
data_403149-ICSD
_database_code_ICSD 403149
_audit_creation_date 2020-08-01
_chemical_name_common 'β-Barium borate hydroxide'
_chemical_formula_structural 'Ba3 (B10 O17 (O H)2)'
_chemical_formula_sum 'H2 B10 Ba3 O19'
_exptl_crystal_density_diffrn 3.69
_diffrn_ambient_temperature 296.
_citation_title

;
Edge-sharing BO$_4$ tetrahedra in the structure of hydrothermally synthesized
barium borate. α-Ba$_3$[B$_{10}$O$_{17}$(OH)$_2$]
;
loop_
_citation_id
_citation_journal_full
_citation_year
_citation_journal_volume
_citation_page_first
_citation_page_last
_citation_journal_id_ASTM
primary 'Inorganic Chemistry' 2019 58 4085 4088 INOCAJ
loop_
_citation_author_citation_id
_citation_author_name
primary 'Jen, I-Hsuan'
primary 'Lee, Yi-Chang'
primary 'Tsai, Cheng-En'
primary 'Lii, Kwang-Hwa'
_cell_length_a 11.4957(7)
_cell_length_b 6.7330(4)
_cell_length_c 19.2406(12)
_cell_angle_alpha 90
_cell_angle_beta 93.597(2)
_cell_angle_gamma 90
_cell_volume 1486.29
_cell_formula_units_Z 4
_space_group_name_H-M_alt 'C 1 2 1'
_space_group_IT_number 5
loop_
_space_group_symop_id
_space_group_symop_operation_xyz
1 '-x, y, -z'
2 'x, y, z'
3 '-x+1/2, y+1/2, -z'
4 'x+1/2, y+1/2, z'
loop_
_atom_type_symbol
_atom_type_oxidation_number
Ba2+ 2
B3+ 3
O2- -2
H1+ 1
O2- -2
H1+ 1
loop_
_atom_site_label
_atom_site_type_symbol
_atom_site_symmetry_multiplicity
_atom_site_Wyckoff_symbol
_atom_site_fract_x
_atom_site_fract_y
_atom_site_fract_z
_atom_site_U_iso_or_equiv
_atom_site_occupancy
Ba1 Ba2+ 4 c -0.25701(2) -0.44951(3) -0.19714(2) 0.00979(4) 1
Ba2 Ba2+ 4 c -0.33566(2) -0.96434(3) -0.29740(2) 0.00884(4) 1
Ba3 Ba2+ 2 b 0 -0.30384(4) -0.5 0.00991(6) 1
Ba4 Ba2+ 2 a 0 -0.15302(4) 0 0.01100(6) 1
B1 B3+ 4 c -0.4185(3) -0.9384(6) -0.13279(17) 0.0074(6) 1
B2 B3+ 4 c -0.5392(3) -0.6391(6) -0.18130(18) 0.0072(6) 1
B3 B3+ 4 c -0.2000(3) -0.9215(5) -0.13942(18) 0.0084(7) 1
B4 B3+ 4 c -0.2868(3) -1.0015(6) -0.0280(2) 0.0118(7) 1
B5 B3+ 4 c -0.5059(3) -1.2849(6) -0.15001(19) 0.0083(6) 1
B6 B3+ 4 c -0.5590(3) -0.6505(6) -0.31589(19) 0.0073(6) 1
B7 B3+ 4 c -0.6641(3) -0.9818(6) -0.35103(18) 0.0081(7) 1
B8 B3+ 4 c -0.3825(3) -0.5248(6) -0.37160(19) 0.0082(7) 1
B9 B3+ 4 c -0.5351(3) -0.2914(6) -0.33403(19) 0.0091(7) 1
B10 B3+ 4 c -0.7581(3) -0.9764(7) -0.47085(19) 0.0134(7) 1
O1 O2- 4 c -0.52379(19) -0.8229(4) -0.14060(12) 0.0083(4) 1
O2 O2- 4 c -0.31566(19) -0.8465(3) -0.15987(12) 0.0073(4) 1
O3 O2- 4 c -0.39717(18) -0.9734(4) -0.05512(11) 0.0116(5) 1
O4 O2- 4 c -0.42685(19) -1.1412(4) -0.16517(13) 0.0105(5) 1
O5 O2- 4 c -0.46789(19) -0.4764(4) -0.14222(12) 0.0102(4) 1
O6 O2- 4 c -0.66328(19) -0.5787(3) -0.18434(12) 0.0079(4) 1
O7 O2- 4 c -0.4936(2) -0.6561(4) -0.24916(12) 0.0110(5) 1
O8 O2- 4 c -0.1210(2) -0.7434(3) -0.14368(14) 0.0110(5) 1
O9 O2- 4 c -0.1911(2) -0.9896(4) -0.06521(12) 0.0121(5) 1
O10 O2- 4 c -0.2656(2) -1.0417(5) 0.04200(14) 0.0212(6) 1
H1 H1+ 4 c -0.276598 -1.160092 0.049102 0.032 1
O11 O2- 4 c -0.65870(19) -0.7850(4) -0.32069(12) 0.0100(4) 1
O12 O2- 4 c -0.4719(2) -0.6794(4) -0.36832(12) 0.0074(4) 1
O13 O2- 4 c -0.61300(18) -0.4441(4) -0.33090(12) 0.0107(4) 1
O14 O2- 4 c -0.77312(19) -1.0827(3) -0.33445(12) 0.0072(4) 1
O15 O2- 4 c -0.65957(19) -0.9715(5) -0.42851(11) 0.0164(5) 1
O16 O2- 4 c -0.5624(2) -1.0964(4) -0.32469(14) 0.0128(5) 1
O17 O2- 4 c -0.3655(2) -0.4985(4) -0.44816(12) 0.0126(5) 1
O18 O2- 4 c -0.4204(2) -0.3309(4) -0.34362(13) 0.0128(5) 1
O19 O2- 4 c -0.7384(2) -0.9565(6) -0.54146(12) 0.0203(5) 1
H2 H1+ 4 c -0.800801 -0.959467 -0.564515 0.03 1
loop_
_atom_site_aniso_label
_atom_site_aniso_type_symbol
_atom_site_aniso_U_11
_atom_site_aniso_U_22
_atom_site_aniso_U_33
_atom_site_aniso_U_12
_atom_site_aniso_U_13
_atom_site_aniso_U_23
Ba1 Ba2+ 0.01054(8) 0.00757(8) 0.01138(8) 0.00005(8) 0.00172(6) 0.00062(8)
Ba2 Ba2+ 0.00775(7) 0.00793(8) 0.01077(8) -0.00078(7) -0.00005(6) 0.00052(8)
Ba3 Ba2+ 0.00816(11) 0.01379(13) 0.00793(12) 0 0.00158(9) 0
Ba4 Ba2+ 0.01032(12) 0.01107(13) 0.01134(12) 0 -0.00144(9) 0
B1 B3+ 0.0070(13) 0.0075(17) 0.0078(14) -0.0009(13) 0.0005(11) 0.0004(13)
B2 B3+ 0.0058(14) 0.0072(15) 0.0086(15) 0.0009(13) 0.0010(12) -0.0011(13)
B3 B3+ 0.0066(14) 0.010(2) 0.0088(15) 0.0008(12) -0.0001(11) 0.0007(13)
B4 B3+ 0.0124(17) 0.012(2) 0.0112(16) 0.0007(13) -0.0004(13) 0.0008(13)
B5 B3+ 0.0082(15) 0.0082(17) 0.0086(15) -0.0016(13) -0.0002(12) -0.0015(13)
B6 B3+ 0.0063(15) 0.0065(15) 0.0094(16) 0.0007(13) 0.0020(12) -0.0006(13)
B7 B3+ 0.0051(14) 0.0086(19) 0.0109(15) -0.0019(14) 0.0018(11) 0.0006(14)
B8 B3+ 0.0080(16) 0.0072(15) 0.0094(16) -0.0001(13) -0.0002(12) 0.0007(13)
B9 B3+ 0.0083(16) 0.0084(17) 0.0105(16) 0.0021(15) -0.0006(12) 0.0004(14)
B10 B3+ 0.0131(16) 0.015(2) 0.0121(16) -0.0024(16) 0.0014(13) -0.0011(17)
O1 O2- 0.0073(10) 0.0063(11) 0.0115(10) 0.0000(9) 0.0014(8) 0.0027(9)
O2 O2- 0.0049(10) 0.0062(11) 0.0109(10) 0.0001(8) 0.0008(8) 0.0015(8)
O3 O2- 0.0091(10) 0.0160(12) 0.0099(10) 0.0009(11) 0.0018(8) 0.0034(11)
O4 O2- 0.0079(11) 0.0058(11) 0.0181(12) -0.0014(9) 0.0030(9) -0.0007(10)
O5 O2- 0.0063(9) 0.0062(11) 0.0179(11) 0.0005(9) -0.0007(8) -0.0007(10)
O6 O2- 0.0057(10) 0.0069(11) 0.0110(11) 0.0003(8) 0.0002(8) -0.0021(9)
O7 O2- 0.0067(10) 0.0181(13) 0.0084(10) 0.0025(10) 0.0020(8) 0.0008(11)
O8 O2- 0.0057(11) 0.0062(11) 0.0214(13) 0.0001(8) 0.0025(9) -0.0025(9)
O9 O2- 0.0086(10) 0.0170(14) 0.0105(10) 0.0033(9) -0.0003(8) 0.0032(9)
O10 O2- 0.0209(14) 0.0307(16) 0.0115(12) -0.0078(12) -0.0031(10) 0.0078(11)
O11 O2- 0.0084(10) 0.0061(11) 0.0159(11) -0.0009(9) 0.0039(8) -0.0010(9)
O12 O2- 0.0058(10) 0.0067(11) 0.0100(11) -0.0008(8) 0.0027(8) -0.0004(9)
O13 O2- 0.0075(9) 0.0066(11) 0.0180(10) 0.0010(10) 0.0016(8) -0.0003(10)
O14 O2- 0.0054(10) 0.0078(11) 0.0085(10) -0.0012(8) 0.0004(8) 0.0000(8)
O15 O2- 0.0107(10) 0.0299(15) 0.0087(10) -0.0063(12) 0.0023(8) -0.0011(12)
O16 O2- 0.0068(10) 0.0065(11) 0.0248(13) 0.0004(8) -0.0014(9) -0.0011(10)
O17 O2- 0.0109(11) 0.0159(14) 0.0107(10) -0.0016(9) -0.0003(8) 0.0027(9)
O18 O2- 0.0076(11) 0.0064(11) 0.0247(13) -0.0005(9) 0.0035(9) -0.0031(10)
O19 O2- 0.0144(11) 0.0370(15) 0.0094(10) -0.0035(14) 0.0006(8) 0.0026(14)
#End of TTdata_403149-ICSD
#
