(C) 2022 by FIZ Karlsruhe - Leibniz Institute for Information Infrastructure.  All rights reserved.
data_45179-ICSD
_database_code_ICSD 45179
_audit_creation_date 2022-08-01
_chemical_name_common 'Lithium tetralanthanum dinitride heptaiodide'
_chemical_formula_structural 'Li La4 N2 I7'
_chemical_formula_sum 'I7 La4 Li1 N2'
_chemical_name_structure_type LiLa4N2I7
_exptl_crystal_density_diffrn 5.41
_diffrn_ambient_temperature 220.
_citation_title

;
LiLa$_4$N$_2$I$_7$ as the first lithium-containing nitride halide of the
lanthanides. Synthesis, crystal structure and spectroscopic characterization
;
loop_
_citation_id
_citation_journal_full
_citation_year
_citation_journal_volume
_citation_page_first
_citation_page_last
_citation_journal_id_ASTM
primary 'Solid State Sciences' 2020 99 '' '' SSSCFJ
loop_
_citation_author_citation_id
_citation_author_name
primary 'Schurz, Christian M.'
primary 'Niewa, Rainer'
primary 'Schleid, Thomas'
_cell_length_a 13.7824(3)
_cell_length_b 12.1505(3)
_cell_length_c 10.8327(3)
_cell_angle_alpha 90.
_cell_angle_beta 90.
_cell_angle_gamma 90.
_cell_volume 1814.07
_cell_formula_units_Z 4
_space_group_name_H-M_alt 'P n m a'
_space_group_IT_number 62
loop_
_space_group_symop_id
_space_group_symop_operation_xyz
1 'x+1/2, y, -z+1/2'
2 'x, -y+1/2, z'
3 '-x+1/2, y+1/2, z+1/2'
4 '-x, -y, -z'
5 '-x+1/2, -y, z+1/2'
6 '-x, y+1/2, -z'
7 'x+1/2, -y+1/2, -z+1/2'
8 'x, y, z'
loop_
_atom_type_symbol
_atom_type_oxidation_number
Li1+ 1
La3+ 3
N3- -3
I1- -1
loop_
_atom_site_label
_atom_site_type_symbol
_atom_site_symmetry_multiplicity
_atom_site_Wyckoff_symbol
_atom_site_fract_x
_atom_site_fract_y
_atom_site_fract_z
_atom_site_U_iso_or_equiv
_atom_site_occupancy
Li1 Li1+ 4 c 0.433(2) 0.25 0.955(4) 0.046(9) 1
La1 La3+ 4 c 0.08930(5) 0.25 0.87214(7) 0.01273(14) 1
La2 La3+ 4 c 0.39366(5) 0.25 0.40685(7) 0.01325(15) 1
La3 La3+ 8 d 0.09129(4) 0.01182(4) 0.12001(5) 0.01295(11) 1
N1 N3- 8 d 0.4970(6) 0.1237(7) 0.5070(8) 0.0155(14) 1
I1 I1- 4 c 0.04148(7) 0.25 0.31501(8) 0.01992(19) 1
I2 I1- 4 c 0.25410(6) 0.25 0.09188(9) 0.01968(18) 1
I3 I1- 4 c 0.29808(6) 0.25 0.68887(9) 0.01920(18) 1
I4 I1- 8 d 0.03279(5) 0.07992(6) 0.64877(6) 0.02076(14) 1
I5 I1- 8 d 0.25801(5) 0.02258(5) 0.38761(6) 0.02205(15) 1
loop_
_atom_site_aniso_label
_atom_site_aniso_type_symbol
_atom_site_aniso_U_11
_atom_site_aniso_U_22
_atom_site_aniso_U_33
_atom_site_aniso_U_12
_atom_site_aniso_U_13
_atom_site_aniso_U_23
Li1 Li1+ 0.037(17) 0.036(17) 0.06(2) 0. 0.029(17) 0.
La1 La3+ 0.0133(3) 0.0119(3) 0.0129(3) 0. 0.0011(3) 0.
La2 La3+ 0.0126(3) 0.0103(3) 0.0168(3) 0. -0.0015(3) 0.
La3 La3+ 0.0142(2) 0.0109(2) 0.0137(2) 0.00005(18) -0.00196(18) 0.00018(18)
N1 N3- 0.015(3) 0.014(3) 0.018(4) -0.003(3) 0.004(3) -0.002(3)
I1 I1- 0.0206(4) 0.0235(4) 0.0156(4) 0. 0.0003(3) 0.
I2 I1- 0.0176(4) 0.0226(4) 0.0188(4) 0. -0.0003(3) 0.
I3 I1- 0.0188(4) 0.0175(4) 0.0213(4) 0. 0.0063(3) 0.
I4 I1- 0.0248(3) 0.0221(3) 0.0153(3) -0.0054(3) 0.0025(2) -0.0036(2)
I5 I1- 0.0208(3) 0.0185(3) 0.0268(3) -0.0039(2) -0.0076(3) 0.0010(3)
#End of TTdata_45179-ICSD
#
