(C) 2022 by FIZ Karlsruhe - Leibniz Institute for Information Infrastructure.  All rights reserved.
data_151634-ICSD
_database_code_ICSD 151634
_audit_creation_date 2006-10-01
_chemical_name_common 'Europium sulfide (3/4) - LT'
_chemical_formula_structural 'Eu3 S4'
_chemical_formula_sum 'Eu3 S4'
_chemical_name_structure_type Eu3S4
_exptl_crystal_density_diffrn 6.3
_diffrn_ambient_temperature 160.
_citation_title

;
Charge ordering in Eu3 S4 determined by the valence-difference contrast of
synchrotron X-ray diffraction
;
loop_
_citation_id
_citation_journal_full
_citation_year
_citation_journal_volume
_citation_page_first
_citation_page_last
_citation_journal_id_ASTM
primary 'Physica B: Condensed Matter (Amsterdam, Netherlands)' 2004 350 353 365
PHYBE3
loop_
_citation_author_citation_id
_citation_author_name
primary 'Ohara, H.'
primary 'Sasaki, S.'
primary 'Konoike, Y.'
primary 'Toyoda, T.'
primary 'Yamawaki, K.'
primary 'Tanaka, M.'
_cell_length_a 8.508
_cell_length_b 8.508
_cell_length_c 8.514
_cell_angle_alpha 90.
_cell_angle_beta 90.
_cell_angle_gamma 90.
_cell_volume 616.29
_cell_formula_units_Z 4
_space_group_name_H-M_alt 'I -4 2 d'
_space_group_IT_number 122
loop_
_space_group_symop_id
_space_group_symop_operation_xyz
1 '-y, -x+1/2, z+1/4'
2 'y, -x, -z'
3 'y, x+1/2, z+1/4'
4 '-y, x, -z'
5 'x, -y+1/2, -z+1/4'
6 '-x, -y, z'
7 '-x, y+1/2, -z+1/4'
8 'x, y, z'
9 '-y+1/2, -x, z+3/4'
10 'y+1/2, -x+1/2, -z+1/2'
11 'y+1/2, x, z+3/4'
12 '-y+1/2, x+1/2, -z+1/2'
13 'x+1/2, -y, -z+3/4'
14 '-x+1/2, -y+1/2, z+1/2'
15 '-x+1/2, y, -z+3/4'
16 'x+1/2, y+1/2, z+1/2'
loop_
_atom_type_symbol
_atom_type_oxidation_number
Eu3+ 3
Eu3+ 2.5
S2- -2
loop_
_atom_site_label
_atom_site_type_symbol
_atom_site_symmetry_multiplicity
_atom_site_Wyckoff_symbol
_atom_site_fract_x
_atom_site_fract_y
_atom_site_fract_z
_atom_site_B_iso_or_equiv
_atom_site_occupancy
Eu1 Eu3+ 4 a 0 0 0 0.47(2) 1.
Eu2 Eu3+ 8 d 0.3749(3) 0.25 0.125 0.53(3) 1.
S1 S2- 16 e 0.573(1) 0.823(1) 0.448(1) 1.4(1) 1.
loop_
_atom_site_aniso_label
_atom_site_aniso_type_symbol
_atom_site_aniso_beta_11
_atom_site_aniso_beta_22
_atom_site_aniso_beta_33
_atom_site_aniso_beta_12
_atom_site_aniso_beta_13
_atom_site_aniso_beta_23
Eu1 Eu3+ 0.00178(9) 0.00178(9) 0.0013(1) 0. 0. 0.
Eu2 Eu3+ 0.0019(1) 0.0023(1) 0.00128(7) 0. 0. 0.00003(8)
S1 S2- 0.0064(5) 0.0045(4) 0.0033(3) 0.0023(3) 0.0014(3) 0.0011(3)
#End of TTdata_151634-ICSD
#
