(C) 2022 by FIZ Karlsruhe - Leibniz Institute for Information Infrastructure.  All rights reserved.
data_170331-ICSD
_database_code_ICSD 170331
_audit_creation_date 2006-04-01
_chemical_name_common 'Dicesium tripalladium diphosphate'
_chemical_formula_structural 'Cs2 Pd3 (As2 O7)2'
_chemical_formula_sum 'As4 Cs2 O14 Pd3'
_exptl_crystal_density_diffrn 4.67
_diffrn_ambient_temperature 296.
_citation_title

;
Cs2 Pd3 (P2 O7)2 and Cs2 Pd3 (As2 O7)2: a 3D palladium phosphate with a tunnel
structure and a 2D palladium arsenate containing strings of palladium atoms
;
loop_
_citation_id
_citation_journal_full
_citation_year
_citation_journal_volume
_citation_page_first
_citation_page_last
_citation_journal_id_ASTM
primary 'Inorganic Chemistry' 2004 43 2499 2502 INOCAJ
loop_
_citation_author_citation_id
_citation_author_name
primary 'Lii, K.-H.'
primary 'Wang, S.-L.'
primary 'Liao, F.-L.'
_cell_length_a 16.2510(10)
_cell_length_b 16.2510(10)
_cell_length_c 5.9681(5)
_cell_angle_alpha 90.
_cell_angle_beta 90.
_cell_angle_gamma 90.
_cell_volume 1576.15
_cell_formula_units_Z 4
_space_group_name_H-M_alt 'P 4/n Z'
_space_group_IT_number 85
loop_
_space_group_symop_id
_space_group_symop_operation_xyz
1 '-y, x+1/2, -z'
2 'y+1/2, -x, -z'
3 'x+1/2, y+1/2, -z'
4 '-x, -y, -z'
5 'y, -x+1/2, z'
6 '-y+1/2, x, z'
7 '-x+1/2, -y+1/2, z'
8 'x, y, z'
loop_
_atom_type_symbol
_atom_type_oxidation_number
Cs1+ 1
Pd2+ 2
As5+ 5
O2- -2
loop_
_atom_site_label
_atom_site_type_symbol
_atom_site_symmetry_multiplicity
_atom_site_Wyckoff_symbol
_atom_site_fract_x
_atom_site_fract_y
_atom_site_fract_z
_atom_site_U_iso_or_equiv
_atom_site_occupancy
Cs1 Cs1+ 8 g -0.01239(3) 0.16823(3) 0.52705(8) 0.03129(15) 1
Pd1 Pd2+ 4 d 0. 0.5 0. 0.01359(16) 1
Pd2 Pd2+ 4 f -0.25 0.25 0.24051(11) 0.01323(16) 1
Pd3 Pd2+ 2 c 0.25 0.25 -0.15714(16) 0.0136(2) 1
Pd4 Pd2+ 2 c 0.25 0.25 0.31059(16) 0.0120(2) 1
As1 As5+ 8 g 0.09812(4) 0.33153(4) 0.08042(11) 0.01419(16) 1
As2 As5+ 8 g -0.09259(4) 0.32172(4) -0.00350(11) 0.01354(16) 1
O1 O2- 8 g 0.0670(3) 0.4221(2) 0.1845(8) 0.0192(9) 1
O2 O2- 8 g 0.1273(2) 0.2704(2) 0.2925(8) 0.0181(9) 1
O3 O2- 8 g 0.1618(3) 0.3382(2) -0.1386(8) 0.0193(9) 1
O4 O2- 8 g 0.0085(2) 0.2850(3) -0.0246(8) 0.0229(11) 1
O5 O2- 8 g -0.0960(3) 0.4242(3) -0.0063(10) 0.0313(13) 1
O6 O2- 8 g -0.1314(2) 0.2829(3) -0.2406(8) 0.0229(10) 1
O7 O2- 8 g -0.1295(3) 0.2835(3) 0.2369(8) 0.0236(10) 1
loop_
_atom_site_aniso_label
_atom_site_aniso_type_symbol
_atom_site_aniso_U_11
_atom_site_aniso_U_22
_atom_site_aniso_U_33
_atom_site_aniso_U_12
_atom_site_aniso_U_13
_atom_site_aniso_U_23
Cs1 Cs1+ 0.0367(3) 0.0283(3) 0.0288(3) 0.00743(19) 0.01070(19) 0.00003(18)
Pd1 Pd2+ 0.0103(3) 0.0086(3) 0.0218(4) -0.0001(2) -0.0008(2) -0.0006(2)
Pd2 Pd2+ 0.0146(3) 0.0110(3) 0.0141(3) -0.0003(2) 0. 0.
Pd3 Pd2+ 0.0117(3) 0.0117(3) 0.0173(5) 0. 0. 0.
Pd4 Pd2+ 0.0100(3) 0.0100(3) 0.0158(5) 0. 0. 0.
As1 As5+ 0.0097(3) 0.0111(3) 0.0218(4) 0.0007(2) -0.0011(2) 0.0007(2)
As2 As5+ 0.0090(3) 0.0112(3) 0.0205(4) -0.0010(2) -0.0009(2) 0.0000(2)
O1 O2- 0.025(2) 0.013(2) 0.020(2) 0.0077(17) -0.0070(19) -0.0017(18)
O2 O2- 0.012(2) 0.019(2) 0.024(3) 0.0036(16) 0.0029(17) 0.0080(19)
O3 O2- 0.018(2) 0.016(2) 0.024(2) 0.0034(17) -0.0006(18) 0.0064(18)
O4 O2- 0.008(2) 0.018(2) 0.042(3) 0.0005(17) -0.0009(19) -0.006(2)
O5 O2- 0.017(2) 0.010(2) 0.067(4) -0.0010(18) -0.010(2) 0.004(2)
O6 O2- 0.012(2) 0.033(3) 0.024(3) -0.0030(17) -0.0006(18) -0.007(2)
O7 O2- 0.020(2) 0.029(2) 0.022(3) -0.0067(18) 0.0007(19) 0.006(2)
#End of TTdata_170331-ICSD
#
