(C) 2022 by FIZ Karlsruhe - Leibniz Institute for Information Infrastructure.  All rights reserved.
data_281064-ICSD
_database_code_ICSD 281064
_audit_creation_date 2003-04-01
_chemical_name_common 'Tetrarubidium bis(oxoniobo)octasilicate'
_chemical_formula_structural 'Rb4 ((Nb O)2 (Si8 O21))'
_chemical_formula_sum 'Nb2 O23 Rb4 Si8'
_exptl_crystal_density_diffrn 3.42
_diffrn_ambient_temperature 294.
_citation_title

;
The first observation of heteronuclear two-bond J-coupling in the solid state:
crystal structure and solid-state NMR spectroscopy of Rb4 (Nb O)2 (Si8 O21)
;
loop_
_citation_id
_citation_journal_full
_citation_year
_citation_journal_volume
_citation_page_first
_citation_page_last
_citation_journal_id_ASTM
primary 'Inorganic Chemistry' 2002 41 5644 5646 INOCAJ
loop_
_citation_author_citation_id
_citation_author_name
primary 'Kao, H.-M.'
primary 'Lii, K.-H.'
_cell_length_a 6.8977(5)
_cell_length_b 7.7585(5)
_cell_length_c 11.0133(7)
_cell_angle_alpha 76.490(1)
_cell_angle_beta 89.297(1)
_cell_angle_gamma 71.831(1)
_cell_volume 543.33
_cell_formula_units_Z 1
_space_group_name_H-M_alt 'P -1'
_space_group_IT_number 2
loop_
_space_group_symop_id
_space_group_symop_operation_xyz
1 '-x, -y, -z'
2 'x, y, z'
loop_
_atom_type_symbol
_atom_type_oxidation_number
Rb1+ 1
Nb5+ 5
Si4+ 4
O2- -2
loop_
_atom_site_label
_atom_site_type_symbol
_atom_site_symmetry_multiplicity
_atom_site_Wyckoff_symbol
_atom_site_fract_x
_atom_site_fract_y
_atom_site_fract_z
_atom_site_U_iso_or_equiv
_atom_site_occupancy
Rb1 Rb1+ 2 i 0.68286(5) 0.28083(5) 0.35751(3) 0.02458(10) 1.
Rb2 Rb1+ 2 i 0.71242(5) 0.21593(5) 0.01033(3) 0.02446(10) 1.
Nb1 Nb5+ 2 i 0.21385(3) 0.25935(3) 0.18283(2) 0.00866(8) 1.
Si1 Si4+ 2 i 0.50122(10) 0.19451(10) 0.69901(7) 0.0096(2) 1.
Si2 Si4+ 2 i 0.05190(11) 0.86708(10) 0.28624(7) 0.0096(2) 1.
Si3 Si4+ 2 i 0.15672(11) 0.29877(10) 0.49831(7) 0.00908(15) 1.
Si4 Si4+ 2 i 0.83186(11) 0.67188(10) 0.13024(6) 0.0090(2) 1.
O1 O2- 2 i 0.5429(3) -.0230(3) 0.7544(2) 0.0158(4) 1.
O2 O2- 2 i 0.3766(3) 0.3126(3) 0.7952(2) 0.0184(4) 1.
O3 O2- 2 i 0.3760(3) 0.2765(3) 0.5630(2) 0.0196(5) 1.
O4 O2- 2 i 0.7076(3) 0.2520(3) 0.6742(2) 0.0146(4) 1.
O5 O2- 2 i 0.0223(3) 0.0762(3) 0.2173(2) 0.0155(4) 1.
O6 O2- 2 i -.0297(3) 0.7604(3) 0.1986(2) 0.0196(4) 1.
O7 O2- 2 i -.0680(3) 0.8566(3) 0.4154(2) 0.0159(4) 1.
O8 O2- 1 g 0 0.5 0.5 0.0302(4) 1.
O9 O2- 2 i 0.1829(4) 0.2686(3) 0.3622(2) 0.0240(5) 1.
O10 O2- 2 i 0.9426(3) 0.4545(3) 0.1404(2) 0.0149(4) 1.
O11 O2- 2 i 0.7784(3) 0.7925(3) -.0112(2) 0.0186(4) 1.
O12 O2- 2 i 0.3704(3) 0.4006(3) 0.1478(2) 0.0187(4) 1.
loop_
_atom_site_aniso_label
_atom_site_aniso_type_symbol
_atom_site_aniso_U_11
_atom_site_aniso_U_22
_atom_site_aniso_U_33
_atom_site_aniso_U_12
_atom_site_aniso_U_13
_atom_site_aniso_U_23
Rb1 Rb1+ 0.0229(2) 0.0246(2) 0.0246(2) -0.00552(14) 0.00230(12) -0.00563(13)
Rb2 Rb1+ 0.0198(2) 0.0290(2) 0.0204(2) -0.00372(13) 0.00024(12) -0.00336(13)
Nb1 Nb5+ 0.00903(13) 0.00745(13) 0.00880(13) -0.0019(1) 0.00088(9) -0.00163(9)
Si1 Si4+ 0.0067(3) 0.0099(4) 0.0108(3) -0.0016(3) 0.0000(3) -0.0015(3)
Si2 Si4+ 0.0077(3) 0.0097(4) 0.0113(3) -0.0030(3) 0.0001(3) -0.0022(3)
Si3 Si4+ 0.0087(3) 0.0087(4) 0.0083(3) -0.0007(3) 0.0003(3) -0.0019(3)
Si4 Si4+ 0.0090(3) 0.0082(4) 0.0094(3) -0.0018(3) 0.0007(3) -0.0027(3)
O1 O2- 0.0117(9) 0.0132(10) 0.0201(10) -0.0037(8) -0.0014(8) 0.0002(8)
O2 O2- 0.0148(10) 0.0179(11) 0.0257(11) -0.0060(9) 0.0103(8) -0.0108(9)
O3 O2- 0.0155(10) 0.0253(12) 0.0155(10) -0.0095(9) -0.0055(8) 0.0047(9)
O4 O2- 0.0074(9) 0.0130(11) 0.0214(10) -0.0033(8) -0.0003(8) 0.0000(8)
O5 O2- 0.0117(9) 0.0124(10) 0.0197(10) -0.0049(8) -0.0019(8) 0.0028(8)
O6 O2- 0.0187(10) 0.0222(12) 0.0225(11) -0.0089(9) -0.0024(8) -0.0104(9)
O7 O2- 0.0164(10) 0.0155(10) 0.0175(10) -0.0074(8) 0.0073(8) -0.0047(8)
O8 O2- 0.028(2) 0.012(2) 0.039(2) 0.0063(14) 0.0150(15) -0.0033(14)
O9 O2- 0.0340(13) 0.0268(13) 0.0123(10) -0.0095(11) 0.0039(9) -0.0069(9)
O10 O2- 0.0130(9) 0.0105(10) 0.0186(10) -0.0001(8) 0.0014(8) -0.0035(8)
O11 O2- 0.0266(11) 0.0131(10) 0.0102(9) 0.0016(9) -0.0012(8) -0.0025(8)
O12 O2- 0.0167(10) 0.0152(11) 0.0245(11) -0.0080(9) 0.0024(8) -0.0016(8)
#End of TTdata_281064-ICSD
#
