(C) 2022 by FIZ Karlsruhe - Leibniz Institute for Information Infrastructure.  All rights reserved.
data_79309-ICSD
_database_code_ICSD 79309
_audit_creation_date 1996-10-14
_chemical_name_common 'Calcium iron(III) diiron tris(phosphate(V)) hydrate'
_chemical_formula_structural 'Ca Fe3 (P O4)3 (H2 O)'
_chemical_formula_sum 'H2 Ca1 Fe3 O13 P3'
_exptl_crystal_density_diffrn 3.65
_citation_title

;
Ca Fe3 (P O4)3 (H2 O): a mixed-valence iron phosphate containing zigzag chains
of Fe O6 octahedra
;
loop_
_citation_id
_citation_journal_full
_citation_year
_citation_journal_volume
_citation_page_first
_citation_page_last
_citation_journal_id_ASTM
primary 'European Journal of Solid State and Inorganic Chemistry' 1995 32 225
235 EJSCE5
loop_
_citation_author_citation_id
_citation_author_name
primary 'Lii, K.-H.'
primary 'Huang, C.Y.'
_cell_length_a 12.538(2)
_cell_length_b 11.670(2)
_cell_length_c 12.699(1)
_cell_angle_alpha 90.
_cell_angle_beta 90.
_cell_angle_gamma 90.
_cell_volume 1858.1
_cell_formula_units_Z 8
_space_group_name_H-M_alt 'P b c a'
_space_group_IT_number 61
loop_
_space_group_symop_id
_space_group_symop_operation_xyz
1 'x+1/2, y, -z+1/2'
2 'x, -y+1/2, z+1/2'
3 '-x+1/2, y+1/2, z'
4 '-x, -y, -z'
5 '-x+1/2, -y, z+1/2'
6 '-x, y+1/2, -z+1/2'
7 'x+1/2, -y+1/2, -z'
8 'x, y, z'
loop_
_atom_type_symbol
_atom_type_oxidation_number
Ca2+ 2
Fe3+ 3
Fe2+ 2
P5+ 5
O2- -2
H1+ 1
loop_
_atom_site_label
_atom_site_type_symbol
_atom_site_symmetry_multiplicity
_atom_site_Wyckoff_symbol
_atom_site_fract_x
_atom_site_fract_y
_atom_site_fract_z
_atom_site_U_iso_or_equiv
_atom_site_occupancy
Ca1 Ca2+ 8 c 0.25684(9) 0.99880(9) 0.3759(1) 0.0094(3) 1.
Fe1 Fe3+ 8 c 0.32922(6) 0.22913(6) 0.54080(7) 0.0060(2) 1.
Fe2 Fe2+ 8 c 0.35285(6) 0.76242(6) 0.20930(7) 0.0084(2) 1.
Fe3 Fe2+ 8 c 0.50644(7) 0.03310(6) 0.20988(8) 0.0153(2) 1.
P1 P5+ 8 c 0.6121(1) 0.7676(1) 0.2015(1) 0.0061(4) 1.
P2 P5+ 8 c 0.5951(1) 0.2374(1) 0.0562(1) 0.0052(4) 1.
P3 P5+ 8 c 0.2630(1) 0.0217(1) 0.1240(1) 0.0066(3) 1.
O1 O2- 8 c 0.3294(3) 0.1986(3) 0.3842(3) 0.008(1) 1.
O2 O2- 8 c 0.3180(3) 0.3966(3) 0.5458(3) 0.011(1) 1.
O3 O2- 8 c 0.3166(3) 0.2287(3) 0.6990(3) 0.009(1) 1.
O4 O2- 8 c 0.4837(3) 0.2136(3) 0.5332(3) 0.011(1) 1.
O5 O2- 8 c 0.3007(3) 0.0597(3) 0.5519(3) 0.007(1) 1.
O6 O2- 8 c 0.1626(3) 0.2424(3) 0.5456(3) 0.007(1) 1.
O7 O2- 8 c 0.3128(3) 0.5788(3) 0.2037(3) 0.010(1) 1.
O8 O2- 8 c 0.3536(3) 0.8172(3) 0.3623(3) 0.010(1) 1.
O9 O2- 8 c 0.5084(3) 0.7050(3) 0.2293(3) 0.009(1) 1.
O10 O2- 8 c 0.3502(3) -.0387(3) 0.1891(3) 0.011(1) 1.
O11 O2- 8 c 0.4721(3) 0.0069(4) 0.3775(4) 0.020(1) 1.
O12 O2- 8 c 0.5930(3) 0.1137(3) 0.0940(3) 0.009(1) 1.
O13 O2- 8 c 0.5927(3) 0.8890(3) 0.1646(3) 0.011(1) 1.
H1 H1+ 8 c 0.496(6) -.070(7) 0.417(6) 0.050(1) 1.
H2 H1+ 8 c 0.503(6) 0.070(7) 0.424(7) 0.050(1) 1.
#End of TTdata_79309-ICSD
#
