(C) 2022 by FIZ Karlsruhe - Leibniz Institute for Information Infrastructure.  All rights reserved.
data_202739-ICSD
_database_code_ICSD 202739
_audit_creation_date 1989-12-04
_chemical_name_common 'Barium hexamolybdate(III)'
_chemical_formula_structural 'Ba Mo6 O10'
_chemical_formula_sum 'Ba1 Mo6 O10'
_exptl_crystal_density_diffrn 7.2
_citation_title 'Zigzag octahedral cluster chains in Ba Mo6 O10'
loop_
_citation_id
_citation_journal_full
_citation_year
_citation_journal_volume
_citation_page_first
_citation_page_last
_citation_journal_id_ASTM
primary 'Journal of Solid State Chemistry' 1988 77 407 411 JSSCBI
loop_
_citation_author_citation_id
_citation_author_name
primary 'Lii, K.-H.'
primary 'Wang, C.-C.'
primary 'Wang, S.-L.'
_cell_length_a 10.154(2)
_cell_length_b 8.641(2)
_cell_length_c 9.184(2)
_cell_angle_alpha 90.
_cell_angle_beta 90.
_cell_angle_gamma 90.
_cell_volume 805.81
_cell_formula_units_Z 4
_space_group_name_H-M_alt 'P n m a'
_space_group_IT_number 62
loop_
_space_group_symop_id
_space_group_symop_operation_xyz
1 'x+1/2, y, -z+1/2'
2 'x, -y+1/2, z'
3 '-x+1/2, y+1/2, z+1/2'
4 '-x, -y, -z'
5 '-x+1/2, -y, z+1/2'
6 '-x, y+1/2, -z'
7 'x+1/2, -y+1/2, -z+1/2'
8 'x, y, z'
loop_
_atom_type_symbol
_atom_type_oxidation_number
Ba2+ 2
Mo3+ 3
O2- -2
loop_
_atom_site_label
_atom_site_type_symbol
_atom_site_symmetry_multiplicity
_atom_site_Wyckoff_symbol
_atom_site_fract_x
_atom_site_fract_y
_atom_site_fract_z
_atom_site_U_iso_or_equiv
_atom_site_occupancy
Ba1 Ba2+ 4 c 0.3971(2) 0.25 0.4959(2) . 1.
Mo1 Mo3+ 4 c 0.0346(2) 0.25 0.3827(2) . 1.
Mo2 Mo3+ 8 d 0.9592(2) 0.0844(2) 0.6170(2) . 1.
Mo3 Mo3+ 4 c 0.7222(2) 0.25 0.6275(3) . 1.
Mo4 Mo3+ 8 d 0.7862(2) 0.0950(2) 0.3865(2) . 1.
O1 O2- 8 d 0.9492(12) 0.0880(13) 0.2565(15) 0.007(3) 1.
O2 O2- 8 d 0.6991(13) -.0828(14) 0.2542(15) 0.011(3) 1.
O3 O2- 4 c 0.2060(18) 0.25 0.2484(22) 0.006(4) 1.
O4 O2- 8 d 0.1426(12) 0.0920(14) 0.5040(16) 0.008(3) 1.
O5 O2- 4 c 0.0433(18) 0.25 0.7445(22) 0.007(4) 1.
O6 O2- 8 d 0.6319(11) 0.0909(13) 0.5091(16) 0.006(3) 1.
loop_
_atom_site_aniso_label
_atom_site_aniso_type_symbol
_atom_site_aniso_U_11
_atom_site_aniso_U_22
_atom_site_aniso_U_33
_atom_site_aniso_U_12
_atom_site_aniso_U_13
_atom_site_aniso_U_23
Ba1 Ba2+ 0.006(1) 0.009(1) 0.005(1) 0 -.001(1) 0
Mo1 Mo3+ 0.004(1) 0.012(1) 0.003(1) 0 0.000(1) 0
Mo2 Mo3+ 0.004(1) 0.006(1) 0.002(1) 0.001(1) 0.000(1) 0.000(1)
Mo3 Mo3+ 0.004(1) 0.005(1) 0.002(1) 0 0.001(1) 0
Mo4 Mo3+ 0.005(1) 0.003(1) 0.003(1) 0.001(1) 0.000(1) 0.001(1)
#End of TTdata_202739-ICSD
#
