(C) 2022 by FIZ Karlsruhe - Leibniz Institute for Information Infrastructure.  All rights reserved.
data_260105-ICSD
_database_code_ICSD 260105
_audit_creation_date 2009-02-01
_chemical_name_common 'Dirubidium diniobate(V) disilicate hydrate'
_chemical_formula_structural 'Rb2 (Nb2 O4) (Si2 O6) (H2 O)'
_chemical_formula_sum 'H2 Nb2 O11 Rb2 Si2'
_exptl_crystal_density_diffrn 3.74
_diffrn_ambient_temperature 296.
_citation_title

;
Synthesis and characterization of open - framework niobium silicates: Rb2 (Nb2
O4) (Si2 O6) * H2 O and the dehydrated phase Rb2 (Nb2 O4) (Si2 O6)
;
loop_
_citation_id
_citation_journal_full
_citation_year
_citation_journal_volume
_citation_page_first
_citation_page_last
_citation_journal_id_ASTM
primary 'Inorganic Chemistry' 2008 47 11223 11227 INOCAJ
loop_
_citation_author_citation_id
_citation_author_name
primary 'Tasi Jhenming'
primary 'Tu Potao'
primary 'Chan Tingshan'
primary 'Lii Kwanghwa'
_cell_length_a 7.3431(3)
_cell_length_b 7.3431(3)
_cell_length_c 38.911(3)
_cell_angle_alpha 90.
_cell_angle_beta 90.
_cell_angle_gamma 90.
_cell_volume 2098.12
_cell_formula_units_Z 8
_space_group_name_H-M_alt 'P 43 2 2'
_space_group_IT_number 95
loop_
_space_group_symop_id
_space_group_symop_operation_xyz
1 '-y, -x, -z+3/4'
2 'y, x, -z+1/4'
3 'x, -y, -z+1/2'
4 '-x, y, -z'
5 'y, -x, z+1/4'
6 '-y, x, z+3/4'
7 '-x, -y, z+1/2'
8 'x, y, z'
loop_
_atom_type_symbol
_atom_type_oxidation_number
Rb1+ 1
Nb5+ 5
Si4+ 4
O2- -2
H1+ 1
loop_
_atom_site_label
_atom_site_type_symbol
_atom_site_symmetry_multiplicity
_atom_site_Wyckoff_symbol
_atom_site_fract_x
_atom_site_fract_y
_atom_site_fract_z
_atom_site_U_iso_or_equiv
_atom_site_occupancy
Rb1 Rb1+ 8 d 0.46416(12) 0.98759(14) 0.180196(17) 0.0414(2) 1
Rb2 Rb1+ 4 c 0.97175(15) 0.97175(15) 0.125 0.0530(4) 1
Rb3 Rb1+ 4 b 0.5 1.35134(12) 0. 0.0253(2) 1
Nb1 Nb5+ 8 d 0.50014(10) 0.72425(6) 0.089175(10) 0.00533(11) 1
Nb2 Nb5+ 8 d 0.49919(11) 1.22887(5) 0.094149(10) 0.00540(11) 1
Si1 Si4+ 8 d 0.21895(18) 0.9999(4) 0.04077(3) 0.0056(2) 1
Si2 Si4+ 8 d 0.78570(18) 0.9957(4) 0.04154(3) 0.0052(2) 1
O1 O2- 8 d 0.3008(7) 1.1757(7) 0.05787(11) 0.0071(10) 1
O2 O2- 8 d 0.3138(8) 0.8103(8) 0.05452(12) 0.0125(11) 1
O3 O2- 8 d 0.2425(5) 1.0086(5) -0.00061(9) 0.0152(7) 1
O4 O2- 8 d 0.0026(5) 0.9956(6) 0.04978(9) 0.0182(8) 1
O5 O2- 8 d 0.6951(9) 1.1775(8) 0.05871(14) 0.0169(12) 1
O6 O2- 8 d 0.7061(8) 0.8147(7) 0.05721(12) 0.0076(10) 1
O7 O2- 8 d 0.6782(8) 1.3087(8) 0.12752(11) 0.0138(14) 1
O8 O2- 8 d 0.5043(5) 0.4903(5) 0.07255(8) 0.0095(6) 1
O9 O2- 4 c 0.6813(7) 0.6813(7) 0.125 0.0060(14) 1
O10 O2- 8 d 0.5001(5) 0.9914(5) 0.10760(8) 0.0086(6) 1
O11 O2- 4 c 0.3063(7) 1.3063(7) 0.125 0.0057(14) 1
O12 O2- 8 d 0.1960(12) 0.5825(8) 0.0007(2) 0.069(2) 1
loop_
_atom_site_aniso_label
_atom_site_aniso_type_symbol
_atom_site_aniso_U_11
_atom_site_aniso_U_22
_atom_site_aniso_U_33
_atom_site_aniso_U_12
_atom_site_aniso_U_13
_atom_site_aniso_U_23
Rb1 Rb1+ 0.0498(5) 0.0515(5) 0.0228(3) -0.0068(5) 0.0078(3) 0.0023(3)
Rb2 Rb1+ 0.0727(6) 0.0727(6) 0.0137(4) -0.0112(10) -0.0059(4) 0.0059(4)
Rb3 Rb1+ 0.0330(5) 0.0310(4) 0.0120(3) 0. 0.0008(4) 0.
Nb1 Nb5+ 0.0068(2) 0.00388(18) 0.00531(18) 0.0003(3) 0.0004(2) 0.00045(14)
Nb2 Nb5+ 0.0071(2) 0.00381(19) 0.00535(18) -0.0005(2) 0.0005(2) -0.00078(13)
Si1 Si4+ 0.0050(5) 0.0064(6) 0.0052(5) 0.0006(9) -0.0007(4) 0.0013(9)
Si2 Si4+ 0.0041(5) 0.0067(7) 0.0049(5) 0.0003(9) 0.0006(4) -0.0005(9)
O1 O2- 0.011(2) 0.007(2) 0.0039(17) -0.0047(17) -0.0017(15) 0.0002(15)
O3 O2- 0.0217(19) 0.0177(18) 0.0061(15) 0.0018(16) 0.0015(14) -0.003(3)
O4 O2- 0.0043(15) 0.036(2) 0.0145(16) 0.003(4) 0.0012(15) -0.0003(17)
O5 O2- 0.019(3) 0.007(3) 0.025(2) -0.0034(19) 0.014(2) -0.0033(19)
O7 O2- 0.013(3) 0.014(3) 0.014(2) 0.0031(18) -0.0046(17) -0.0052(17)
O8 O2- 0.0124(16) 0.0063(15) 0.0097(14) -0.002(3) 0.0007(14) -0.0001(13)
O12 O2- 0.117(7) 0.046(4) 0.046(3) 0.044(4) -0.018(5) -0.013(4)
#End of TTdata_260105-ICSD
#
