(C) 2022 by FIZ Karlsruhe - Leibniz Institute for Information Infrastructure.  All rights reserved.
data_263039-ICSD
_database_code_ICSD 263039
_audit_creation_date 2013-02-01
_chemical_name_common 'Tetracesium uranyl(V) bis(uranyl(IV/V)) bis(disilicate)'
_chemical_formula_structural 'Cs4 (U O) (U O)2 (Si2 O7)2'
_chemical_formula_sum 'Cs4 O17 Si4 U3'
_exptl_crystal_density_diffrn 5.45
_diffrn_ambient_temperature 293.
_citation_title

;
Mixed-valence uranium germanate and silicate: Cs(x) (U(V) O) (U(IV/V) O)2(Ge2
O7)2 (x = 3.18) and Cs4 (U(V) O) (U(IV/V) O)2 (Si2 O7)2
;
loop_
_citation_id
_citation_journal_full
_citation_year
_citation_journal_volume
_citation_page_first
_citation_page_last
_citation_journal_id_ASTM
primary 'Inorganic Chemistry' 2012 51 7463 7465 INOCAJ
loop_
_citation_author_citation_id
_citation_author_name
primary 'Chen Chunliang'
primary 'Nguyen Quang Bac'
primary 'Chen Chihshan'
primary 'Lii Kwanghwa'
_cell_length_a 11.594(2)
_cell_length_b 7.5438(15)
_cell_length_c 11.894(2)
_cell_angle_alpha 90.
_cell_angle_beta 107.43(3)
_cell_angle_gamma 90.
_cell_volume 992.52
_cell_formula_units_Z 2
_space_group_name_H-M_alt 'C 1 2/m 1'
_space_group_IT_number 12
loop_
_space_group_symop_id
_space_group_symop_operation_xyz
1 '-x, y, -z'
2 '-x, -y, -z'
3 'x, -y, z'
4 'x, y, z'
5 '-x+1/2, y+1/2, -z'
6 '-x+1/2, -y+1/2, -z'
7 'x+1/2, -y+1/2, z'
8 'x+1/2, y+1/2, z'
loop_
_atom_type_symbol
_atom_type_oxidation_number
Cs1+ 1
U5+ 5
U5+ 4.6
Si4+ 4
O2- -2
loop_
_atom_site_label
_atom_site_type_symbol
_atom_site_symmetry_multiplicity
_atom_site_Wyckoff_symbol
_atom_site_fract_x
_atom_site_fract_y
_atom_site_fract_z
_atom_site_U_iso_or_equiv
_atom_site_occupancy
Cs1 Cs1+ 4 i 0.82101(6) 0. 0.48252(5) 0.02568(17) 1
Cs2 Cs1+ 4 i 0.85172(5) 0. 0.07976(6) 0.02352(16) 1
U1 U5+ 2 b 0.5 0. 0. 0.00804(13) 1
U2 U5+ 4 i 0.44973(2) 0. 0.31245(2) 0.00776(12) 1
Si1 Si4+ 8 j 0.66066(12) -0.2940(2) 0.23293(13) 0.0091(3) 1
O1 O2- 8 j 0.6230(4) -0.2018(6) 0.1040(4) 0.0175(9) 1
O2 O2- 8 j 0.8056(3) -0.2946(6) 0.2969(4) 0.0159(8) 1
O3 O2- 8 j 0.5907(4) -0.2013(6) 0.3181(4) 0.0174(9) 1
O4 O2- 4 i 0.6145(6) -0.5 0.2140(7) 0.0228(15) 1
O5 O2- 4 i 0.4049(5) 0. 0.1210(6) 0.0164(12) 1
O6 O2- 2 d 0.5 0. 0.5 0.033(3) 1
loop_
_atom_site_aniso_label
_atom_site_aniso_type_symbol
_atom_site_aniso_U_11
_atom_site_aniso_U_22
_atom_site_aniso_U_33
_atom_site_aniso_U_12
_atom_site_aniso_U_13
_atom_site_aniso_U_23
Cs1 Cs1+ 0.0336(3) 0.0233(3) 0.0158(3) 0. 0.0009(2) 0.
Cs2 Cs1+ 0.0132(2) 0.0322(3) 0.0244(3) 0. 0.0044(2) 0.
U1 U5+ 0.0089(2) 0.0098(2) 0.0054(2) 0. 0.00206(14) 0.
U2 U5+ 0.00731(16) 0.01004(17) 0.00630(17) 0. 0.00261(10) 0.
Si1 Si4+ 0.0091(6) 0.0089(7) 0.0090(7) 0.0013(5) 0.0023(5) 0.0004(5)
O1 O2- 0.020(2) 0.021(2) 0.012(2) 0.0070(16) 0.0057(16) 0.0052(16)
O2 O2- 0.0096(17) 0.017(2) 0.020(2) 0.0037(15) 0.0029(15) -0.0023(17)
O3 O2- 0.0190(19) 0.019(2) 0.014(2) 0.0058(16) 0.0052(16) 0.0007(17)
O4 O2- 0.014(3) 0.009(3) 0.038(4) 0. -0.003(3) 0.
O5 O2- 0.011(3) 0.024(3) 0.014(3) 0. 0.003(2) 0.
O6 O2- 0.034(5) 0.024(5) 0.054(8) 0. 0.030(5) 0.
#End of TTdata_263039-ICSD
#
