(C) 2022 by FIZ Karlsruhe - Leibniz Institute for Information Infrastructure.  All rights reserved.
data_759793-ICSD
_database_code_ICSD 759793
_audit_creation_date 2020-02-01
_chemical_name_common 'Lithium chloride pentahydrate'
_chemical_formula_structural 'Li Cl (H2 O)5'
_chemical_formula_sum 'H10 Cl1 Li1 O5'
_chemical_name_structure_type LiBr(H2O)5
_exptl_crystal_density_diffrn 1.42
_diffrn_ambient_temperature 140.
_citation_title
'Higher hydrates of lithium chloride, lithium bromide and lithium iodide'
loop_
_citation_id
_citation_journal_full
_citation_year
_citation_journal_volume
_citation_page_first
_citation_page_last
_citation_journal_id_ASTM
primary 'Acta Crystallographica, Section C: Structural Chemistry' 2018 74 194
202 ACSCGG
loop_
_citation_author_citation_id
_citation_author_name
primary 'Sohr, Julia'
primary 'Schmidt, Horst'
primary 'Voigt, Wolfgang'
_cell_length_a 6.247(2)
_cell_length_b 9.232(4)
_cell_length_c 11.677(5)
_cell_angle_alpha 88.34(3)
_cell_angle_beta 77.53(3)
_cell_angle_gamma 70.77(3)
_cell_volume 620.21
_cell_formula_units_Z 4
_space_group_name_H-M_alt 'P -1'
_space_group_IT_number 2
loop_
_space_group_symop_id
_space_group_symop_operation_xyz
1 '-x, -y, -z'
2 'x, y, z'
loop_
_atom_type_symbol
_atom_type_oxidation_number
Cl1- -1
O2- -2
Li1+ 1
H1+ 1
loop_
_atom_site_label
_atom_site_type_symbol
_atom_site_symmetry_multiplicity
_atom_site_Wyckoff_symbol
_atom_site_fract_x
_atom_site_fract_y
_atom_site_fract_z
_atom_site_U_iso_or_equiv
_atom_site_occupancy
Cl1 Cl1- 2 i 0.78691(10) 0.79885(7) 0.66275(5) 0.01835(17) 1
Cl2 Cl1- 2 i 0.80551(10) 0.23008(7) 0.11356(5) 0.01806(17) 1
O1 O2- 2 i 0.2808(4) 0.8698(2) 0.60670(17) 0.0231(4) 1
O2 O2- 2 i 0.7219(4) 0.6734(2) 0.93029(17) 0.0215(4) 1
O3 O2- 2 i 0.6819(3) 0.4875(2) 0.62282(16) 0.0187(4) 1
O4 O2- 2 i 0.3120(3) 0.1007(2) 0.84764(18) 0.0199(4) 1
O5 O2- 2 i 0.6054(3) 0.1762(2) 0.63678(15) 0.0156(3) 1
O6 O2- 2 i 0.2319(3) 0.4922(2) 0.62378(17) 0.0190(4) 1
O7 O2- 2 i 0.4167(3) 0.3941(2) 0.83745(15) 0.0162(4) 1
O8 O2- 2 i 0.0973(3) 0.1915(2) 0.62585(16) 0.0167(4) 1
O9 O2- 2 i 0.9264(3) 0.3735(2) 0.83957(15) 0.0166(4) 1
O10 O2- 2 i 0.7662(3) 0.0882(2) 0.86541(18) 0.0215(4) 1
Li1 Li1+ 2 i 0.2590(8) 0.2886(5) 0.7282(4) 0.0211(9) 1
Li2 Li1+ 2 i 0.7594(8) 0.2896(5) 0.7317(4) 0.0198(9) 1
H1 H1+ 2 i 0.700(5) 0.566(2) 0.642(3) 0.028(10) 1
H2 H1+ 2 i 0.125(5) 0.572(3) 0.648(3) 0.031(10) 1
H3 H1+ 2 i 0.246(9) 0.486(5) 0.5524(11) 0.09(2) 1
H4 H1+ 2 i 0.439(3) 0.086(3) 0.863(3) 0.013(7) 1
H5 H1+ 2 i 0.097(9) 0.220(5) 0.5586(17) 0.053(14) 1
H6 H1+ 2 i 0.632(8) 0.176(4) 0.5651(9) 0.040(12) 1
H7 H1+ 2 i 0.143(9) 0.0974(12) 0.622(4) 0.060(16) 1
H8 H1+ 2 i 0.776(7) 0.124(4) 0.927(2) 0.042(12) 1
H9 H1+ 2 i 0.639(8) 0.0866(18) 0.656(3) 0.042(12) 1
H10 H1+ 2 i 0.295(6) 0.017(2) 0.844(4) 0.044(12) 1
H11 H1+ 2 i 0.615(5) 0.728(4) 0.900(4) 0.050(14) 1
H12 H1+ 2 i 0.820(6) 0.717(5) 0.919(5) 0.08(2) 1
H13 H1+ 2 i 0.185(5) 0.831(5) 0.643(3) 0.041(12) 1
H14 H1+ 2 i 0.392(5) 0.841(5) 0.639(3) 0.047(13) 1
H15 H1+ 2 i 0.543(2) 0.504(4) 0.630(4) 0.029(10) 1
H16 H1+ 2 i 0.861(6) 0.001(2) 0.855(3) 0.043(12) 1
H17 H1+ 2 i 0.374(8) 0.4881(12) 0.840(4) 0.048(13) 1
H18 H1+ 2 i 0.876(9) 0.4644(16) 0.861(4) 0.069(17) 1
H19 H1+ 2 i 0.393(9) 0.367(4) 0.9052(16) 0.054(14) 1
H20 H1+ 2 i 0.948(10) 0.323(4) 0.897(3) 0.066(17) 1
loop_
_atom_site_aniso_label
_atom_site_aniso_type_symbol
_atom_site_aniso_U_11
_atom_site_aniso_U_22
_atom_site_aniso_U_33
_atom_site_aniso_U_12
_atom_site_aniso_U_13
_atom_site_aniso_U_23
Cl1 Cl1- 0.0215(3) 0.0159(3) 0.0155(3) -0.0040(2) -0.0032(2) 0.0020(2)
Cl2 Cl1- 0.0202(3) 0.0165(3) 0.0165(3) -0.0053(2) -0.0034(2) 0.0026(2)
O1 O2- 0.0301(10) 0.0206(9) 0.0158(8) -0.0068(8) -0.0017(7) 0.0012(7)
O2 O2- 0.0259(10) 0.0218(9) 0.0152(8) -0.0062(8) -0.0040(7) 0.0025(7)
O3 O2- 0.0197(9) 0.0185(9) 0.0186(9) -0.0076(7) -0.0040(7) 0.0030(7)
O4 O2- 0.0191(9) 0.0154(8) 0.0249(9) -0.0055(7) -0.0046(7) 0.0015(7)
O5 O2- 0.0193(8) 0.0131(8) 0.0117(8) -0.0033(6) -0.0014(6) 0.0002(6)
O6 O2- 0.0180(8) 0.0177(9) 0.0178(9) -0.0024(7) -0.0027(7) 0.0029(7)
O7 O2- 0.0194(8) 0.0142(8) 0.0120(8) -0.0037(6) -0.0001(6) 0.0003(6)
O8 O2- 0.0192(8) 0.0153(8) 0.0137(8) -0.0038(6) -0.0026(6) 0.0002(6)
O9 O2- 0.0192(8) 0.0157(8) 0.0135(8) -0.0044(7) -0.0029(6) 0.0012(6)
O10 O2- 0.0221(9) 0.0173(9) 0.0229(9) -0.0015(7) -0.0075(7) -0.0025(7)
Li1 Li1+ 0.020(2) 0.023(2) 0.019(2) -0.0066(17) -0.0024(16) -0.0020(17)
Li2 Li1+ 0.019(2) 0.020(2) 0.018(2) -0.0047(16) -0.0017(16) -0.0035(16)
#End of TTdata_759793-ICSD
#
