(C) 2022 by FIZ Karlsruhe - Leibniz Institute for Information Infrastructure.  All rights reserved.
data_79401-ICSD
_database_code_ICSD 79401
_audit_creation_date 1996-10-14
_chemical_name_common 'Cesium tecto-trititanopentaphosphate - alpha'
_chemical_formula_structural 'Cs (Ti3 P5 O19)'
_chemical_formula_sum 'Cs1 O19 P5 Ti3'
_exptl_crystal_density_diffrn 3.07
_diffrn_ambient_temperature 298.
_citation_title
'Synthesis and crystal structures of alpha- and beta- Cs Ti3 P5 O19'
loop_
_citation_id
_citation_journal_full
_citation_year
_citation_journal_volume
_citation_page_first
_citation_page_last
_citation_journal_id_ASTM
primary 'Journal of Solid State Chemistry' 1995 115 120 125 JSSCBI
loop_
_citation_author_citation_id
_citation_author_name
primary 'Lii, K.-H.'
primary 'Gier, T.E.'
primary 'Stucky, G.D.'
_cell_length_a 9.309(2)
_cell_length_b 14.081(3)
_cell_length_c 6.314(1)
_cell_angle_alpha 90.
_cell_angle_beta 105.82(3)
_cell_angle_gamma 90.
_cell_volume 796.29
_cell_formula_units_Z 2
_space_group_name_H-M_alt 'C 1 m 1'
_space_group_IT_number 8
loop_
_space_group_symop_id
_space_group_symop_operation_xyz
1 'x, -y, z'
2 'x, y, z'
3 'x+1/2, -y+1/2, z'
4 'x+1/2, y+1/2, z'
loop_
_atom_type_symbol
_atom_type_oxidation_number
Cs1+ 1
Ti4+ 4
P5+ 5
O2- -2
loop_
_atom_site_label
_atom_site_type_symbol
_atom_site_symmetry_multiplicity
_atom_site_Wyckoff_symbol
_atom_site_fract_x
_atom_site_fract_y
_atom_site_fract_z
_atom_site_U_iso_or_equiv
_atom_site_occupancy
Cs1 Cs1+ 2 a 0.90287 0 0.47621 0.0391(3) 1.
Ti1 Ti4+ 2 a 0.2353(2) 0 0.1564(3) 0.0109(5) 1.
Ti2 Ti4+ 4 b 0.1327(1) 0.37654(8) 0.8187(2) 0.0112(3) 1.
P1 P5+ 2 a 0.3297(3) 0 0.6972(4) 0.0103(6) 1.
P2 P5+ 4 b 0.5365(2) 0.1467(1) 0.2702(3) 0.0111(5) 1.
P3 P5+ 4 b 0.0000(2) 0.1845(1) 0.0000(3) 0.0107(4) 1.
O1 O2- 2 a 0.2282(8) 0 0.460(1) 0.016(2) 1.
O2 O2- 2 a 0.2256(8) 0 0.848(1) 0.014(2) 1.
O3 O2- 4 b 0.6213(5) 0.1449(4) 0.5124(7) 0.016(1) 1.
O4 O2- 4 b 0.4247(5) 0.0896(3) 0.7377(8) 0.013(1) 1.
O5 O2- 4 b 0.3883(7) 0.0952(4) 0.2206(9) 0.024(2) 1.
O6 O2- 4 b 0.6378(6) 0.1124(3) 0.1351(8) 0.016(1) 1.
O7 O2- 4 b 0.4986(6) 0.2546(3) 0.2129(8) 0.019(2) 1.
O8 O2- 2 a 0.6851(8) 0 0.812(1) 0.017(2) 1.
O9 O2- 4 b 0.0815(6) 0.0952(3) 0.0967(9) 0.018(1) 1.
O10 O2- 4 b 0.0756(6) 0.2400(3) 0.8578(8) 0.016(1) 1.
O11 O2- 4 b 0.8394(5) 0.1622(4) 0.8863(9) 0.021(2) 1.
#End of TTdata_79401-ICSD
#
