(C) 2022 by FIZ Karlsruhe - Leibniz Institute for Information Infrastructure.  All rights reserved.
data_417730-ICSD
_database_code_ICSD 417730
_audit_creation_date 2008-08-01
_audit_update_record 2021-02-01
_chemical_name_common
'Strontium decakis(monooxomolybdate(V)) octakis(diphosphate)'
_chemical_formula_structural 'Sr0.5 (Mo O)5 (P2 O7)4'
_chemical_formula_sum 'Mo5 O33 P8 Sr0.5'
_chemical_name_structure_type Li(MoO)5(P2O7)4
_exptl_crystal_density_diffrn 3.37
_diffrn_ambient_temperature 293.
_citation_title

;
A large series of isotypic Mo(V) diphosphates with a tunnel structure from A
(Mo O)10 (P2 O7)8 with A = Ba, Sr, Ca, Cd, Pb, to A (Mo O)5 (P2 O7)4 with A =
Ag, Li, Na, K
;
loop_
_citation_id
_citation_journal_full
_citation_year
_citation_journal_volume
_citation_page_first
_citation_page_last
_citation_journal_id_ASTM
primary 'Journal of Solid State Chemistry' 2007 180 2044 2052 JSSCBI
loop_
_citation_author_citation_id
_citation_author_name
primary 'Leclaire, A.'
primary 'Caignaert, V.'
primary 'Raveau, B.'
_cell_length_a 32.41470(10)
_cell_length_b 4.83250(10)
_cell_length_c 22.90340(10)
_cell_angle_alpha 90
_cell_angle_beta 134.5160(10)
_cell_angle_gamma 90
_cell_volume 2558.21
_cell_formula_units_Z 4
_space_group_name_H-M_alt 'C 1 2/c 1'
_space_group_IT_number 15
loop_
_space_group_symop_id
_space_group_symop_operation_xyz
1 'x, -y, z+1/2'
2 '-x, -y, -z'
3 '-x, y, -z+1/2'
4 'x, y, z'
5 'x+1/2, -y+1/2, z+1/2'
6 '-x+1/2, -y+1/2, -z'
7 '-x+1/2, y+1/2, -z+1/2'
8 'x+1/2, y+1/2, z'
loop_
_atom_type_symbol
_atom_type_oxidation_number
Mo5+ 5
P5+ 5
Sr2+ 2
O2- -2
loop_
_atom_site_label
_atom_site_type_symbol
_atom_site_symmetry_multiplicity
_atom_site_Wyckoff_symbol
_atom_site_fract_x
_atom_site_fract_y
_atom_site_fract_z
_atom_site_U_iso_or_equiv
_atom_site_occupancy
Mo1 Mo5+ 8 f 0.09206(3) 0.85037(12) 0.03786(4) 0.0101(4) 1
Mo2 Mo5+ 8 f 0.19611(3) 0.10518(11) 0.35294(4) 0.0095(4) 1
Mo3 Mo5+ 4 e 0 0.7460(2) 0.25 0.0101(6) 0.9101(11)
Mo4 Mo5+ 4 e 0 0.505(2) 0.25 0.0101(6) 0.0899(11)
P1 P5+ 8 f 0.09886(8) 0.5983(4) 0.24719(11) 0.0082(11) 1
P2 P5+ 8 f 0.12556(8) 0.3516(4) 0.16401(11) 0.0101(12) 1
P3 P5+ 8 f 0.10159(8) 0.3506(4) -0.05021(10) 0.0088(11) 1
P4 P5+ 8 f 0.21114(8) 0.1103(4) 0.08768(11) 0.0104(11) 1
Sr1 Sr2+ 8 f 0.26037(18) 0.1975(16) 0.2602(3) 0.091(3) 0.25
O1 O2- 8 f 0.0281(3) 0.7243(11) -0.0151(3) 0.025(4) 1
O2 O2- 8 f 0.0921(2) 1.1117(10) 0.1056(3) 0.018(4) 1
O3 O2- 8 f 0.1373(2) 0.5768(10) 0.1313(3) 0.018(4) 1
O4 O2- 8 f 0.1101(2) 0.6364(11) -0.0179(3) 0.020(4) 1
O5 O2- 8 f 0.0711(2) 1.1597(10) -0.0379(3) 0.016(3) 1
O6 O2- 8 f 0.1809(2) 1.0154(10) 0.1124(3) 0.015(3) 1
O7 O2- 8 f 0.2073(3) -0.0277(11) 0.4286(3) 0.023(4) 1
O8 O2- 8 f 0.2601(2) 0.3889(11) 0.4180(3) 0.020(4) 1
O9 O2- 8 f 0.1255(2) -0.1234(10) 0.2627(3) 0.018(4) 1
O10 O2- 8 f 0.1385(2) 0.4033(10) 0.3180(3) 0.014(3) 1
O11 O2- 8 f 0.2472(2) -0.1510(11) 0.3571(3) 0.022(4) 1
O12 O2- 8 f 0.1805(2) 0.2731(10) 0.2488(3) 0.015(3) 1
O13 O2- 4 e 0 1.0912(3) 0.25 0.033(2) 0.9101(11)
O14 O2- 4 e 0 0.160(2) 0.25 0.033(2) 0.0899(11)
O15 O2- 8 f 0.0392(2) 0.6224(11) 0.2170(3) 0.016(3) 1
O16 O2- 8 f 0.0719(2) 0.6397(11) 0.3620(3) 0.016(3) 1
O17 O2- 8 f 0.0828(2) 0.4746(10) 0.1700(3) 0.016(4) 1
O18 O2- 8 f 0.1633(2) 0.2267(10) -0.0033(3) 0.011(3) 1
loop_
_atom_site_aniso_label
_atom_site_aniso_type_symbol
_atom_site_aniso_U_11
_atom_site_aniso_U_22
_atom_site_aniso_U_33
_atom_site_aniso_U_12
_atom_site_aniso_U_13
_atom_site_aniso_U_23
Mo1 Mo5+ 0.0118(3) 0.0043(3) 0.0172(3) -0.0010(2) 0.0112(3) -0.0010(2)
Mo2 Mo5+ 0.0071(3) 0.0036(3) 0.0139(3) -0.0008(2) 0.0060(3) 0.0000(2)
Mo3 Mo5+ 0.0084(5) 0.0141(5) 0.0082(4) 0 0.0060(4) 0
Mo4 Mo5+ 0.0084(5) 0.0141(5) 0.0082(4) 0 0.0060(4) 0
P1 P5+ 0.0067(9) 0.0045(8) 0.0118(9) 0.0000(6) 0.0059(8) -0.0012(6)
P2 P5+ 0.0102(9) 0.0078(8) 0.0140(9) 0.0006(7) 0.0090(8) 0.0001(7)
P3 P5+ 0.0057(9) 0.0073(8) 0.0099(8) 0.0017(7) 0.0042(8) 0.0004(7)
P4 P5+ 0.0056(9) 0.0060(8) 0.0161(9) 0.0009(7) 0.0063(8) 0.0032(7)
Sr1 Sr2+ 0.009(2) 0.228(7) 0.024(2) -0.016(3) 0.0075(19) -0.063(3)
O1 O2- 0.016(3) 0.027(3) 0.029(3) -0.004(2) 0.015(3) -0.003(2)
O2 O2- 0.015(3) 0.018(3) 0.021(3) -0.011(2) 0.013(3) -0.009(2)
O3 O2- 0.017(3) 0.019(3) 0.023(3) 0.010(2) 0.016(3) 0.013(2)
O4 O2- 0.026(3) 0.016(3) 0.029(3) 0.000(2) 0.023(3) -0.002(2)
O5 O2- 0.008(3) 0.016(3) 0.015(3) 0.001(2) 0.005(2) 0.006(2)
O6 O2- 0.008(3) 0.020(3) 0.012(3) -0.002(2) 0.006(2) -0.002(2)
O7 O2- 0.025(4) 0.022(3) 0.022(3) 0.004(2) 0.018(3) 0.004(2)
O8 O2- 0.013(3) 0.023(3) 0.021(3) -0.011(2) 0.011(3) -0.007(2)
O9 O2- 0.017(3) 0.012(3) 0.018(3) -0.004(2) 0.010(3) 0.001(2)
O10 O2- 0.013(3) 0.015(3) 0.016(3) 0.006(2) 0.011(2) 0.004(2)
O11 O2- 0.019(3) 0.020(3) 0.027(3) 0.011(2) 0.016(3) 0.003(2)
O12 O2- 0.011(3) 0.021(3) 0.013(3) 0.005(2) 0.007(2) 0.007(2)
O15 O2- 0.010(3) 0.021(3) 0.016(3) 0.006(2) 0.010(2) 0.003(2)
O16 O2- 0.011(3) 0.026(3) 0.015(3) 0.000(2) 0.011(2) 0.002(2)
O17 O2- 0.015(3) 0.017(3) 0.020(3) 0.006(2) 0.014(3) 0.000(2)
O18 O2- 0.004(2) 0.014(2) 0.008(2) 0.0016(19) 0.001(2) 0.0007(18)
#End of TTdata_417730-ICSD
#
