(C) 2022 by FIZ Karlsruhe - Leibniz Institute for Information Infrastructure.  All rights reserved.
data_255214-ICSD
_database_code_ICSD 255214
_audit_creation_date 2018-08-01
_chemical_name_common 'Barium octaoxo-hydroxo-alumotetraborate'
_chemical_formula_structural 'Ba (Al B4 O8 (O H))'
_chemical_formula_sum 'H1 Al1 B4 Ba1 O9'
_exptl_crystal_density_diffrn 3.11
_diffrn_ambient_temperature 296.
_citation_title

;
High-temperature, high-pressure hydrothermal synthesis, crystal structure,
thermal stability, and solid state NMR spectroscopy of an aluminum borate,
Ba[AlB4O8(OH)]
;
loop_
_citation_id
_citation_journal_full
_citation_year
_citation_journal_volume
_citation_page_first
_citation_page_last
_citation_journal_id_ASTM
primary 'Inorganic Chemistry' 2018 57 1545 1549 INOCAJ
loop_
_citation_author_citation_id
_citation_author_name
primary 'Peng, Chun-Chi'
primary 'Liu, Hsin-Kuan'
primary 'Lii, Kwang-Hwa'
_cell_length_a 7.0695(5)
_cell_length_b 15.1077(11)
_cell_length_c 7.0746(5)
_cell_angle_alpha 90
_cell_angle_beta 93.593(2)
_cell_angle_gamma 90
_cell_volume 754.1
_cell_formula_units_Z 4
_space_group_name_H-M_alt 'P 1 21/n 1'
_space_group_IT_number 14
loop_
_space_group_symop_id
_space_group_symop_operation_xyz
1 '-x+1/2, y+1/2, -z+1/2'
2 '-x, -y, -z'
3 'x+1/2, -y+1/2, z+1/2'
4 'x, y, z'
loop_
_atom_type_symbol
_atom_type_oxidation_number
Ba2+ 2
Al3+ 3
B3+ 3
O2- -2
H1+ 1
loop_
_atom_site_label
_atom_site_type_symbol
_atom_site_symmetry_multiplicity
_atom_site_Wyckoff_symbol
_atom_site_fract_x
_atom_site_fract_y
_atom_site_fract_z
_atom_site_U_iso_or_equiv
_atom_site_occupancy
Ba1 Ba2+ 4 e 0.20401(2) 0.09024(2) 0.92643(2) 0.00844(6) 1
Al1 Al3+ 4 e -0.29817(12) 0.15140(6) 0.24167(11) 0.00697(17) 1
B1 B3+ 4 e -0.1624(5) 0.2612(2) 0.7509(4) 0.0094(6) 1
B2 B3+ 4 e -0.4948(5) 0.2226(2) 0.7616(4) 0.0106(6) 1
B3 B3+ 4 e -0.2508(5) 0.1092(2) 0.8589(4) 0.0084(6) 1
B4 B3+ 4 e -0.2206(5) 0.0253(3) 0.5582(4) 0.0141(7) 1
O1 O2- 4 e -0.0406(3) 0.32451(14) 0.7037(3) 0.0123(4) 1
O2 O2- 4 e -0.1131(3) 0.18019(14) 0.8170(3) 0.0110(4) 1
O3 O2- 4 e -0.3552(3) 0.28517(14) 0.7277(3) 0.0144(5) 1
O4 O2- 4 e -0.6787(3) 0.24660(14) 0.7566(3) 0.0145(5) 1
O5 O2- 4 e -0.4458(3) 0.13840(14) 0.8088(3) 0.0092(4) 1
O6 O2- 4 e -0.2258(3) 0.08586(13) 1.0567(3) 0.0092(4) 1
O7 O2- 4 e -0.2037(3) 0.02823(14) 0.7533(3) 0.0109(4) 1
O8 O2- 4 e -0.2594(4) 0.09558(17) 0.4501(3) 0.0264(6) 1
O9 O2- 4 e -0.1913(4) -0.05611(17) 0.4712(3) 0.0228(5) 1
loop_
_atom_site_aniso_label
_atom_site_aniso_type_symbol
_atom_site_aniso_U_11
_atom_site_aniso_U_22
_atom_site_aniso_U_33
_atom_site_aniso_U_12
_atom_site_aniso_U_13
_atom_site_aniso_U_23
Ba1 Ba2+ 0.00904(10) 0.00558(10) 0.01069(9) -0.00017(6) 0.00042(6) 0.00081(6)
Al1 Al3+ 0.0074(4) 0.0066(4) 0.0068(3) 0.0013(3) 0.0000(3) -0.0011(3)
B1 B3+ 0.0098(15) 0.0094(16) 0.0092(13) 0.0013(12) 0.0015(11) 0.0015(11)
B2 B3+ 0.0100(15) 0.0105(17) 0.0113(14) -0.0002(12) 0.0008(11) 0.0026(12)
B3 B3+ 0.0073(15) 0.0088(16) 0.0093(13) 0.0009(12) 0.0014(11) 0.0004(11)
B4 B3+ 0.0146(17) 0.0189(19) 0.0088(14) 0.0021(14) 0.0012(12) 0.0006(13)
O1 O2- 0.0080(10) 0.0111(11) 0.0180(10) -0.0008(8) 0.0018(8) 0.0047(8)
O2 O2- 0.0075(10) 0.0092(10) 0.0161(10) 0.0009(8) 0.0001(8) 0.0041(8)
O3 O2- 0.0073(10) 0.0083(11) 0.0277(12) 0.0007(8) 0.0013(8) 0.0094(9)
O4 O2- 0.0073(10) 0.0103(11) 0.0261(11) 0.0016(8) 0.0016(8) 0.0081(9)
O5 O2- 0.0063(9) 0.0075(10) 0.0138(9) -0.0003(7) 0.0004(8) 0.0031(8)
O6 O2- 0.0143(11) 0.0065(11) 0.0069(9) 0.0022(8) 0.0004(8) -0.0003(7)
O7 O2- 0.0162(11) 0.0104(11) 0.0061(9) 0.0033(8) 0.0008(8) -0.0002(7)
O8 O2- 0.0383(16) 0.0316(16) 0.0093(10) 0.0146(12) 0.0020(10) 0.0068(10)
O9 O2- 0.0352(15) 0.0202(13) 0.0133(10) -0.0022(11) 0.0040(10) -0.0074(9)
#End of TTdata_255214-ICSD
#
