(C) 2022 by FIZ Karlsruhe - Leibniz Institute for Information Infrastructure.  All rights reserved.
data_759791-ICSD
_database_code_ICSD 759791
_audit_creation_date 2020-02-01
_chemical_name_common 'Lithium chloride trihydrate'
_chemical_formula_structural 'Li Cl (H2 O)3'
_chemical_formula_sum 'H6 Cl1 Li1 O3'
_chemical_name_structure_type LiCl(H2O)3
_exptl_crystal_density_diffrn 1.54
_diffrn_ambient_temperature 150.
_citation_title
'Higher hydrates of lithium chloride, lithium bromide and lithium iodide'
loop_
_citation_id
_citation_journal_full
_citation_year
_citation_journal_volume
_citation_page_first
_citation_page_last
_citation_journal_id_ASTM
primary 'Acta Crystallographica, Section C: Structural Chemistry' 2018 74 194
202 ACSCGG
loop_
_citation_author_citation_id
_citation_author_name
primary 'Sohr, Julia'
primary 'Schmidt, Horst'
primary 'Voigt, Wolfgang'
_cell_length_a 7.1626(11)
_cell_length_b 10.351(2)
_cell_length_c 5.6038(8)
_cell_angle_alpha 90
_cell_angle_beta 90
_cell_angle_gamma 90
_cell_volume 415.46
_cell_formula_units_Z 4
_space_group_name_H-M_alt 'C m c m'
_space_group_IT_number 63
loop_
_space_group_symop_id
_space_group_symop_operation_xyz
1 '-x, y, -z+1/2'
2 '-x, -y, z+1/2'
3 '-x, y, z'
4 '-x, -y, -z'
5 'x, -y, z+1/2'
6 'x, y, -z+1/2'
7 'x, -y, -z'
8 'x, y, z'
9 '-x+1/2, y+1/2, -z+1/2'
10 '-x+1/2, -y+1/2, z+1/2'
11 '-x+1/2, y+1/2, z'
12 '-x+1/2, -y+1/2, -z'
13 'x+1/2, -y+1/2, z+1/2'
14 'x+1/2, y+1/2, -z+1/2'
15 'x+1/2, -y+1/2, -z'
16 'x+1/2, y+1/2, z'
loop_
_atom_type_symbol
_atom_type_oxidation_number
Cl1- -1
Li1+ 1
O2- -2
H1+ 1
loop_
_atom_site_label
_atom_site_type_symbol
_atom_site_symmetry_multiplicity
_atom_site_Wyckoff_symbol
_atom_site_fract_x
_atom_site_fract_y
_atom_site_fract_z
_atom_site_U_iso_or_equiv
_atom_site_occupancy
Cl1 Cl1- 4 c 0.5 0.27714(2) 0.75 0.01204(12) 1
Li1 Li1+ 4 a 0.5 0.5 1. 0.0158(3) 1
O1 O2- 8 g 0.69697(7) 0.55202(4) 0.75 0.01047(13) 1
O2 O2- 4 c 0. 0.37887(7) 0.75 0.01506(16) 1
H1 H1+ 8 g 0.7506(19) 0.6194(11) 0.75 0.027(3) 1
H2 H1+ 8 g 0.7786(16) 0.5022(11) 0.75 0.020(2) 1
H3 H1+ 8 f 0. 0.3347(12) 0.647(2) 0.038(3) 1
loop_
_atom_site_aniso_label
_atom_site_aniso_type_symbol
_atom_site_aniso_U_11
_atom_site_aniso_U_22
_atom_site_aniso_U_33
_atom_site_aniso_U_12
_atom_site_aniso_U_13
_atom_site_aniso_U_23
Cl1 Cl1- 0.01365(14) 0.00741(14) 0.01507(14) 0. 0. 0.
Li1 Li1+ 0.0128(6) 0.0228(7) 0.0118(7) 0. 0. 0.0039(6)
O1 O2- 0.0095(2) 0.0098(2) 0.0121(2) -0.00148(18) 0. 0.
O2 O2- 0.0151(3) 0.0158(3) 0.0142(3) 0. 0. 0.
#End of TTdata_759791-ICSD
#
