(C) 2022 by FIZ Karlsruhe - Leibniz Institute for Information Infrastructure.  All rights reserved.
data_173279-ICSD
_database_code_ICSD 173279
_audit_creation_date 2008-08-01
_audit_update_record 2012-02-01
_chemical_name_common 'Dirubidium yttrium gallium tetrasilicate'
_chemical_formula_structural 'Rb2 Y Ga Si4 O12'
_chemical_formula_sum 'Ga1 O12 Rb2 Si4 Y1'
_chemical_name_structure_type Rb2YGaSi4O12
_exptl_crystal_density_diffrn 3.46
_diffrn_ambient_temperature 293.
_citation_title

;
Rb2 RE Ga Si4 O12 (RE = Y, Eu, Gd, Tb): luminescent mixed-anion double layer
silicates containing chains of edge-sharing RE O7 pentagonal bipyramids
;
loop_
_citation_id
_citation_journal_full
_citation_year
_citation_journal_volume
_citation_page_first
_citation_page_last
_citation_journal_id_ASTM
primary 'Inorganic Chemistry' 2008 47 1910 1912 INOCAJ
loop_
_citation_author_citation_id
_citation_author_name
primary 'Lee Cheng shiuan'
primary 'Liao Yueh Chun'
primary 'Hsu Jungtsung'
primary 'Wang Sue Lein'
primary 'Lii Kwanghwa'
_cell_length_a 22.5086(19)
_cell_length_b 7.2797(6)
_cell_length_c 14.8629(13)
_cell_angle_alpha 90.
_cell_angle_beta 90.244(2)
_cell_angle_gamma 90.
_cell_volume 2435.35
_cell_formula_units_Z 8
_space_group_name_H-M_alt 'I 1 2/a 1'
_space_group_IT_number 15
loop_
_space_group_symop_id
_space_group_symop_operation_xyz
1 'x+1/2, -y, z'
2 '-x, -y, -z'
3 '-x+1/2, y, -z'
4 'x, y, z'
5 'x, -y+1/2, z+1/2'
6 '-x+1/2, -y+1/2, -z+1/2'
7 '-x, y+1/2, -z+1/2'
8 'x+1/2, y+1/2, z+1/2'
loop_
_atom_type_symbol
_atom_type_oxidation_number
Rb1+ 1
Y3+ 3
Ga3+ 3
Si4+ 4
O2- -2
loop_
_atom_site_label
_atom_site_type_symbol
_atom_site_symmetry_multiplicity
_atom_site_Wyckoff_symbol
_atom_site_fract_x
_atom_site_fract_y
_atom_site_fract_z
_atom_site_U_iso_or_equiv
_atom_site_occupancy
Rb1 Rb1+ 8 f 0.558911(16) 0.74567(5) 0.02384(3) 0.01738(10) 1
Rb2 Rb1+ 8 f 0.78443(2) -0.01305(7) -0.16713(3) 0.03255(13) 1
Y1 Y3+ 8 f 0.518653(15) 0.96811(5) 0.26884(2) 0.00784(9) 1
Ga1 Ga3+ 8 f 0.680121(17) 0.54885(5) -0.09421(3) 0.01025(10) 1
Si1 Si4+ 8 f 0.58140(4) 1.22224(13) 0.09193(6) 0.00776(19) 1
Si2 Si4+ 8 f 0.81222(4) 0.47772(13) -0.11008(7) 0.00749(19) 1
Si3 Si4+ 8 f 0.86958(4) 0.61021(13) -0.29144(6) 0.00754(19) 1
Si4 Si4+ 8 f 0.91308(4) 0.27366(13) -0.38342(6) 0.00765(19) 1
O1 O2- 8 f 0.57613(11) 1.0436(3) 0.15419(16) 0.0113(5) 1
O2 O2- 8 f 0.57226(11) 1.1570(3) -0.01441(16) 0.0124(5) 1
O3 O2- 8 f 0.53742(11) 1.3878(4) 0.11442(16) 0.0129(5) 1
O4 O2- 8 f 0.65156(11) 1.2876(4) 0.09518(18) 0.0149(6) 1
O5 O2- 8 f 0.81761(11) 0.6094(4) -0.02355(16) 0.0131(5) 1
O6 O2- 8 f 0.74442(11) 0.4219(4) -0.13357(17) 0.0149(6) 1
O7 O2- 8 f 0.84149(12) 0.5941(4) -0.19104(17) 0.0179(6) 1
O8 O2- 8 f 0.86318(11) 0.4082(4) -0.33934(18) 0.0144(5) 1
O9 O2- 8 f 0.93748(11) 0.6758(3) -0.28837(16) 0.0113(5) 1
O10 O2- 8 f 0.82300(11) 0.7410(4) -0.34324(19) 0.0166(6) 1
O11 O2- 8 f 0.89111(11) 0.0614(3) -0.38043(17) 0.0124(5) 1
O12 O2- 8 f 0.97260(11) 0.2693(3) -0.32388(16) 0.0099(5) 1
loop_
_atom_site_aniso_label
_atom_site_aniso_type_symbol
_atom_site_aniso_U_11
_atom_site_aniso_U_22
_atom_site_aniso_U_33
_atom_site_aniso_U_12
_atom_site_aniso_U_13
_atom_site_aniso_U_23
Rb1 Rb1+ 0.01332(18) 0.01699(19) 0.0219(2) 0.00118(14) 0.00363(14) -0.00177(15)
Rb2 Rb1+ 0.0265(2) 0.0311(3) 0.0401(3) -0.01026(18) -0.0013(2) -0.0097(2)
Y1 Y3+ 0.00781(16) 0.00762(17) 0.00809(16) -0.00089(12) 0.00162(12) -0.00006(12)
Ga1 Ga3+ 0.0084(2) 0.0111(2) 0.01121(19) 0.00027(15) 0.00122(15) 0.00106(16)
Si1 Si4+ 0.0066(4) 0.0089(4) 0.0077(4) -0.0009(4) 0.0019(3) -0.0001(4)
Si2 Si4+ 0.0060(4) 0.0091(5) 0.0074(4) 0.0013(3) 0.0015(4) 0.0003(4)
Si3 Si4+ 0.0065(4) 0.0085(4) 0.0077(4) 0.0005(3) 0.0023(4) 0.0013(4)
Si4 Si4+ 0.0065(4) 0.0081(4) 0.0083(5) 0.0001(3) 0.0002(4) 0.0000(4)
O1 O2- 0.0143(13) 0.0112(12) 0.0085(12) -0.0010(10) 0.0027(10) 0.0015(10)
O2 O2- 0.0150(13) 0.0123(13) 0.0099(12) -0.0008(10) 0.0008(10) 0.0006(10)
O3 O2- 0.0112(12) 0.0139(13) 0.0137(12) 0.0017(10) 0.0032(10) 0.0015(11)
O4 O2- 0.0067(12) 0.0133(13) 0.0248(15) -0.0026(10) 0.0007(11) -0.0001(11)
O5 O2- 0.0149(13) 0.0162(13) 0.0083(12) -0.0010(10) 0.0021(10) -0.0019(11)
O6 O2- 0.0067(12) 0.0179(14) 0.0202(14) 0.0030(10) -0.0006(10) -0.0047(11)
O7 O2- 0.0216(14) 0.0205(14) 0.0116(13) 0.0009(12) 0.0085(11) 0.0023(11)
O8 O2- 0.0084(12) 0.0139(13) 0.0210(14) -0.0014(10) 0.0037(11) -0.0065(11)
O9 O2- 0.0091(12) 0.0103(12) 0.0145(13) -0.0009(9) 0.0003(10) 0.0000(10)
O10 O2- 0.0110(13) 0.0158(14) 0.0230(14) 0.0002(10) -0.0033(11) 0.0104(12)
O11 O2- 0.0094(12) 0.0092(12) 0.0185(13) -0.0025(10) -0.0016(10) 0.0004(11)
O12 O2- 0.0111(12) 0.0095(12) 0.0092(12) -0.0002(9) -0.0019(10) -0.0002(9)
#End of TTdata_173279-ICSD
#
