(C) 2022 by FIZ Karlsruhe - Leibniz Institute for Information Infrastructure.  All rights reserved.
data_45183-ICSD
_database_code_ICSD 45183
_audit_creation_date 2022-08-01
_chemical_name_common 'Lithium tetralanthanum dinitride heptaiodide'
_chemical_formula_structural 'Li La4 N2 I7'
_chemical_formula_sum 'I7 La4 Li1 N2'
_chemical_name_structure_type LiLa4N2I7
_exptl_crystal_density_diffrn 5.38
_diffrn_ambient_temperature 298.
_citation_title

;
LiLa$_4$N$_2$I$_7$ as the first lithium-containing nitride halide of the
lanthanides. Synthesis, crystal structure and spectroscopic characterization
;
loop_
_citation_id
_citation_journal_full
_citation_year
_citation_journal_volume
_citation_page_first
_citation_page_last
_citation_journal_id_ASTM
primary 'Solid State Sciences' 2020 99 '' '' SSSCFJ
loop_
_citation_author_citation_id
_citation_author_name
primary 'Schurz, Christian M.'
primary 'Niewa, Rainer'
primary 'Schleid, Thomas'
_cell_length_a 13.8109(3)
_cell_length_b 12.1691(3)
_cell_length_c 10.8553(4)
_cell_angle_alpha 90.
_cell_angle_beta 90.
_cell_angle_gamma 90.
_cell_volume 1824.4
_cell_formula_units_Z 4
_space_group_name_H-M_alt 'P n m a'
_space_group_IT_number 62
loop_
_space_group_symop_id
_space_group_symop_operation_xyz
1 'x+1/2, y, -z+1/2'
2 'x, -y+1/2, z'
3 '-x+1/2, y+1/2, z+1/2'
4 '-x, -y, -z'
5 '-x+1/2, -y, z+1/2'
6 '-x, y+1/2, -z'
7 'x+1/2, -y+1/2, -z+1/2'
8 'x, y, z'
loop_
_atom_type_symbol
_atom_type_oxidation_number
Li1+ 1
La3+ 3
N3- -3
I1- -1
loop_
_atom_site_label
_atom_site_type_symbol
_atom_site_symmetry_multiplicity
_atom_site_Wyckoff_symbol
_atom_site_fract_x
_atom_site_fract_y
_atom_site_fract_z
_atom_site_U_iso_or_equiv
_atom_site_occupancy
Li1 Li1+ 4 c 0.435(5) 0.25 0.958(7) 0.07(3) 1
La1 La3+ 4 c 0.08901(9) 0.25 0.87204(12) 0.0150(2) 1
La2 La3+ 4 c 0.39380(9) 0.25 0.40694(12) 0.0158(2) 1
La3 La3+ 8 d 0.09115(6) 0.01182(7) 0.11965(8) 0.01565(19) 1
N1 N3- 8 d 0.4976(10) 0.1229(11) 0.5076(14) 0.017(2) 1
I1 I1- 4 c 0.04116(12) 0.25 0.31465(15) 0.0252(3) 1
I2 I1- 4 c 0.25402(12) 0.25 0.09118(16) 0.0250(3) 1
I3 I1- 4 c 0.29779(12) 0.25 0.68832(16) 0.0239(3) 1
I4 I1- 8 d 0.03216(9) 0.07991(10) 0.64908(10) 0.0268(3) 1
I5 I1- 8 d 0.25839(9) 0.02281(10) 0.38743(12) 0.0286(3) 1
loop_
_atom_site_aniso_label
_atom_site_aniso_type_symbol
_atom_site_aniso_U_11
_atom_site_aniso_U_22
_atom_site_aniso_U_33
_atom_site_aniso_U_12
_atom_site_aniso_U_13
_atom_site_aniso_U_23
Li1 Li1+ 0.03(3) 0.14(8) 0.04(4) 0. 0.02(3) 0.
La1 La3+ 0.0144(5) 0.0150(5) 0.0156(5) 0. 0.0017(4) 0.
La2 La3+ 0.0134(5) 0.0127(5) 0.0214(6) 0. -0.0021(4) 0.
La3 La3+ 0.0164(4) 0.0134(4) 0.0172(4) 0.0002(3) -0.0026(3) 0.0003(3)
N1 N3- 0.014(5) 0.008(5) 0.029(6) -0.005(4) 0.006(5) -0.001(5)
I1 I1- 0.0251(8) 0.0317(8) 0.0187(7) 0. -0.0001(6) 0.
I2 I1- 0.0207(7) 0.0300(8) 0.0244(7) 0. -0.0007(6) 0.
I3 I1- 0.0221(7) 0.0227(7) 0.0270(8) 0. 0.0075(6) 0.
I4 I1- 0.0307(6) 0.0297(6) 0.0199(5) -0.0077(5) 0.0035(4) -0.0050(4)
I5 I1- 0.0247(5) 0.0245(5) 0.0366(6) -0.0056(4) -0.0103(5) 0.0013(5)
#End of TTdata_45183-ICSD
#
