(C) 2022 by FIZ Karlsruhe - Leibniz Institute for Information Infrastructure.  All rights reserved.
data_170330-ICSD
_database_code_ICSD 170330
_audit_creation_date 2006-04-01
_chemical_name_common 'Dicesium tripalladium diarsenate'
_chemical_formula_structural 'Cs2 Pd3 (P2 O7)2'
_chemical_formula_sum 'Cs2 O14 P4 Pd3'
_exptl_crystal_density_diffrn 4.02
_diffrn_ambient_temperature 296.
_citation_title

;
Cs2 Pd3 (P2 O7)2 and Cs2 Pd3 (As2 O7)2: a 3D palladium phosphate with a tunnel
structure and a 2D palladium arsenate containing strings of palladium atoms
;
loop_
_citation_id
_citation_journal_full
_citation_year
_citation_journal_volume
_citation_page_first
_citation_page_last
_citation_journal_id_ASTM
primary 'Inorganic Chemistry' 2004 43 2499 2502 INOCAJ
loop_
_citation_author_citation_id
_citation_author_name
primary 'Lii, K.-H.'
primary 'Wang, S.-L.'
primary 'Liao, F.-L.'
_cell_length_a 7.6061(4)
_cell_length_b 14.2820(7)
_cell_length_c 14.1840(7)
_cell_angle_alpha 90.
_cell_angle_beta 90.
_cell_angle_gamma 90.
_cell_volume 1540.81
_cell_formula_units_Z 4
_space_group_name_H-M_alt 'C m c 21'
_space_group_IT_number 36
loop_
_space_group_symop_id
_space_group_symop_operation_xyz
1 'x, -y, z+1/2'
2 '-x, -y, z+1/2'
3 '-x, y, z'
4 'x, y, z'
5 'x+1/2, -y+1/2, z+1/2'
6 '-x+1/2, -y+1/2, z+1/2'
7 '-x+1/2, y+1/2, z'
8 'x+1/2, y+1/2, z'
loop_
_atom_type_symbol
_atom_type_oxidation_number
Cs1+ 1
Pd2+ 2
P5+ 5
O2- -2
loop_
_atom_site_label
_atom_site_type_symbol
_atom_site_symmetry_multiplicity
_atom_site_Wyckoff_symbol
_atom_site_fract_x
_atom_site_fract_y
_atom_site_fract_z
_atom_site_U_iso_or_equiv
_atom_site_occupancy
Cs1 Cs1+ 4 a 0. 0.93342(3) 0.58732(4) 0.02611(13) 1
Cs2 Cs1+ 4 a 0. 0.78358(4) 1.32598(4) 0.03921(16) 1
Pd1 Pd2+ 4 a 0. 0.88676(4) 0.89567(3) 0.01389(12) 1
Pd2 Pd2+ 4 a 0. 0.62228(3) 0.66272(4) 0.01317(12) 1
Pd3 Pd2+ 4 a 0. 0.62334(4) 0.93298(4) 0.01497(12) 1
P1 P5+ 8 b 0.81347(14) 0.48400(8) 0.79226(9) 0.0142(2) 1
P2 P5+ 8 b 0.81388(16) 0.78218(9) 1.05288(10) 0.0152(2) 1
O1 O2- 4 a 1. 0.4315(3) 0.8014(4) 0.0140(9) 1
O2 O2- 8 b 0.7996(5) 0.5522(3) 0.8745(3) 0.0248(9) 1
O3 O2- 8 b 0.8097(4) 0.5312(3) 0.6959(3) 0.0216(8) 1
O4 O2- 8 b 0.6800(4) 0.4063(2) 0.7949(3) 0.0186(7) 1
O5 O2- 4 a 1. 0.7809(3) 1.1073(4) 0.0187(10) 1
O6 O2- 8 b 0.6795(4) 0.7809(3) 1.1306(3) 0.0195(7) 1
O7 O2- 8 b 0.8031(5) 0.6921(3) 0.9964(3) 0.0292(10) 1
O8 O2- 8 b 0.8114(5) 0.8704(3) 0.9933(3) 0.0246(9) 1
loop_
_atom_site_aniso_label
_atom_site_aniso_type_symbol
_atom_site_aniso_U_11
_atom_site_aniso_U_22
_atom_site_aniso_U_33
_atom_site_aniso_U_12
_atom_site_aniso_U_13
_atom_site_aniso_U_23
Cs1 Cs1+ 0.0241(2) 0.0273(2) 0.0269(3) 0. 0. -0.00446(19)
Cs2 Cs1+ 0.0605(4) 0.0287(3) 0.0284(3) 0. 0. -0.0031(2)
Pd1 Pd2+ 0.0103(2) 0.0176(2) 0.0138(2) 0. 0. 0.00225(18)
Pd2 Pd2+ 0.0089(2) 0.0154(2) 0.0152(2) 0. 0. 0.00398(17)
Pd3 Pd2+ 0.0096(2) 0.0164(3) 0.0188(3) 0. 0. -0.00690(18)
P1 P5+ 0.0107(5) 0.0142(5) 0.0178(6) -0.0019(4) 0.0001(4) -0.0002(5)
P2 P5+ 0.0097(5) 0.0191(6) 0.0169(6) 0.0008(5) 0.0017(4) -0.0052(5)
O1 O2- 0.011(2) 0.012(2) 0.019(2) 0. 0. 0.0004(18)
O2 O2- 0.0119(17) 0.030(2) 0.033(2) -0.0039(15) 0.0003(15) -0.0165(17)
O3 O2- 0.0156(17) 0.025(2) 0.024(2) -0.0050(14) -0.0059(15) 0.0096(15)
O4 O2- 0.0185(17) 0.0227(16) 0.0147(17) -0.0086(13) 0.0015(14) -0.0022(15)
O5 O2- 0.015(2) 0.019(2) 0.022(3) 0. 0. -0.001(2)
O6 O2- 0.0172(17) 0.0162(17) 0.0251(19) 0.0013(14) 0.0097(15) -0.0002(13)
O7 O2- 0.0104(17) 0.031(2) 0.046(3) -0.0005(14) -0.0015(17) -0.025(2)
O8 O2- 0.0183(18) 0.037(2) 0.018(2) 0.0069(15) 0.0028(15) 0.0055(16)
#End of TTdata_170330-ICSD
#
