(C) 2022 by FIZ Karlsruhe - Leibniz Institute for Information Infrastructure.  All rights reserved.
data_237317-ICSD
_database_code_ICSD 237317
_audit_creation_date 2015-02-01
_chemical_name_common
'Nonasodium difluoride bis(uranyl(V) uranyl(VI)) bis(disilicate)'
_chemical_formula_structural 'Na9 F2 (U O2) (U O2)2 (Si2 O7)2'
_chemical_formula_sum 'F2 Na9 O20 Si4 U3'
_exptl_crystal_density_diffrn 4.5
_citation_title

;
High-temperature, high-pressure hydrothermal synthesis and characterization of
a salt-inclusion mixed-valence uranium(V, VI) silicate: [Na9 F2] [(U(V) O2)
(U(VI) O2)2 (Si2 O7)2]
;
loop_
_citation_id
_citation_journal_full
_citation_year
_citation_journal_volume
_citation_page_first
_citation_page_last
_citation_journal_id_ASTM
primary 'Inorganic Chemistry' 2013 52 7230 7235 INOCAJ
loop_
_citation_author_citation_id
_citation_author_name
primary 'Chang, Yu-Chih'
primary 'Chang, Wen-Jung'
primary 'Boudin, Sophie'
primary 'Lii, Kwang-Hwa'
_cell_length_a 5.842(1)
_cell_length_b 7.411(2)
_cell_length_c 11.902(1)
_cell_angle_alpha 90.41(1)
_cell_angle_beta 94.96(1)
_cell_angle_gamma 90.01(2)
_cell_volume 513.35
_cell_formula_units_Z 1
_space_group_name_H-M_alt 'P -1'
_space_group_IT_number 2
loop_
_space_group_symop_id
_space_group_symop_operation_xyz
1 '-x, -y, -z'
2 'x, y, z'
loop_
_atom_type_symbol
_atom_type_oxidation_number
Na1+ 1
F1- -1
U5+ 5
U6+ 6
Si4+ 4
O2- -2
loop_
_atom_site_label
_atom_site_type_symbol
_atom_site_symmetry_multiplicity
_atom_site_Wyckoff_symbol
_atom_site_fract_x
_atom_site_fract_y
_atom_site_fract_z
_atom_site_B_iso_or_equiv
_atom_site_occupancy
Na1 Na1+ 1 c 0 0.5 0 1. 1.
Na2 Na1+ 2 i 0.2868 0.0001 -0.2819 1. 1.
Na3 Na1+ 2 i 0.5001 0.2575 -0.0001 1. 1.
Na4 Na1+ 2 i 0.9999 0.7692 0.5001 1. 1.
Na5 Na1+ 2 i 0.5003 0.2269 0.5 1. 1.
F1 F1- 2 i 0.2576 -0.0003 -0.4699 1. 1.
U1 U5+ 1 a 0 0 0 1. 1.
U2 U6+ 2 i 0.71423 0.50006 0.28481 1. 1.
Si1 Si4+ 2 i 0.2036 0.2146 0.23507 1. 1.
Si2 Si4+ 2 i 0.2037 -0.2144 0.23504 1. 1.
O1 O2- 2 i 0.1732 0.2398 0.1005 1. 1.
O2 O2- 2 i 0.9891 0.2922 0.2975 1. 1.
O3 O2- 2 i 0.4494 0.2858 0.2909 1. 1.
O4 O2- 2 i 0.2023 0.0001 0.2596 1. 1.
O5 O2- 2 i 0.989 0.7089 0.2974 1. 1.
O6 O2- 2 i 0.1729 -0.2406 0.1008 1. 1.
O7 O2- 2 i 0.4491 0.7151 0.2907 1. 1.
O8 O2- 2 i 0.2583 -0.0003 -0.0852 1. 1.
O9 O2- 2 i 0.7375 0.5001 0.4401 1. 1.
O10 O2- 2 i 0.6879 0.5001 0.129 1. 1.
#End of TTdata_237317-ICSD
#
