(C) 2022 by FIZ Karlsruhe - Leibniz Institute for Information Infrastructure.  All rights reserved.
data_417729-ICSD
_database_code_ICSD 417729
_audit_creation_date 2008-08-01
_audit_update_record 2021-02-01
_chemical_name_common 'Lead decamolybdate(V) octakis(diphosphate)'
_chemical_formula_structural 'Pb0.5 (Mo O)5 (P2 O7)4'
_chemical_formula_sum 'Mo5 O33 P8 Pb0.5'
_chemical_name_structure_type Li(MoO)5(P2O7)4
_exptl_crystal_density_diffrn 3.49
_citation_title

;
A large series of isotypic Mo(V) diphosphates with a tunnel structure from A
(Mo O)10 (P2 O7)8 with A = Ba, Sr, Ca, Cd, Pb, to A (Mo O)5 (P2 O7)4 with A =
Ag, Li, Na, K
;
loop_
_citation_id
_citation_journal_full
_citation_year
_citation_journal_volume
_citation_page_first
_citation_page_last
_citation_journal_id_ASTM
primary 'Journal of Solid State Chemistry' 2007 180 2044 2052 JSSCBI
loop_
_citation_author_citation_id
_citation_author_name
primary 'Leclaire, A.'
primary 'Caignaert, V.'
primary 'Raveau, B.'
_cell_length_a 32.4685
_cell_length_b 4.846
_cell_length_c 23.0118
_cell_angle_alpha 90
_cell_angle_beta 134.469
_cell_angle_gamma 90
_cell_volume 2583.86
_cell_formula_units_Z 4
_space_group_name_H-M_alt 'C 1 2/c 1'
_space_group_IT_number 15
loop_
_space_group_symop_id
_space_group_symop_operation_xyz
1 'x, -y, z+1/2'
2 '-x, -y, -z'
3 '-x, y, -z+1/2'
4 'x, y, z'
5 'x+1/2, -y+1/2, z+1/2'
6 '-x+1/2, -y+1/2, -z'
7 '-x+1/2, y+1/2, -z+1/2'
8 'x+1/2, y+1/2, z'
loop_
_atom_type_symbol
_atom_type_oxidation_number
Mo5+ 5
Pb2+ 2
P5+ 5
O2- -2
loop_
_atom_site_label
_atom_site_type_symbol
_atom_site_symmetry_multiplicity
_atom_site_Wyckoff_symbol
_atom_site_fract_x
_atom_site_fract_y
_atom_site_fract_z
_atom_site_U_iso_or_equiv
_atom_site_occupancy
Mo1 Mo5+ 8 f 0.091973(9) 0.84980(4) 0.037839(12) 0.00828(10) 1
Mo2 Mo5+ 8 f 0.196191(8) 0.10486(4) 0.353239(11) 0.00787(9) 1
Mo3 Mo5+ 4 e 0 0.74496(6) 0.25 0.00847(12) 1
Pb1 Pb2+ 8 f 0.23980(3) 0.6981(8) 0.23853(6) 0.1045(10) 0.25
P1 P5+ 8 f 0.09881(2) 0.59806(12) 0.24726(3) 0.0067(3) 1
P2 P5+ 8 f 0.12539(3) 0.35081(13) 0.16404(3) 0.0084(3) 1
P3 P5+ 8 f 0.10141(2) 0.34963(12) -0.05007(3) 0.0066(3) 1
P4 P5+ 8 f 0.21101(2) 0.11135(13) 0.08728(4) 0.0088(3) 1
O1 O2- 8 f 0.02688(9) 0.7247(5) -0.01567(13) 0.0218(12) 1
O2 O2- 8 f 0.09231(8) 1.1131(4) 0.10560(11) 0.0152(10) 1
O3 O2- 8 f 0.13718(9) 0.5784(4) 0.13158(12) 0.0161(11) 1
O4 O2- 8 f 0.11087(9) 0.6370(4) -0.01673(12) 0.0162(12) 1
O5 O2- 8 f 0.07068(7) 1.1631(4) -0.03799(10) 0.0125(9) 1
O6 O2- 8 f 0.18068(7) 1.0168(4) 0.11160(10) 0.0135(9) 1
O7 O2- 8 f 0.20786(10) -0.0262(5) 0.42992(13) 0.0224(13) 1
O8 O2- 8 f 0.25953(8) 0.3868(4) 0.41765(11) 0.0172(10) 1
O9 O2- 8 f 0.12605(8) -0.1242(4) 0.26344(11) 0.0178(10) 1
O10 O2- 8 f 0.13816(8) 0.4011(4) 0.31811(11) 0.0141(10) 1
O11 O2- 8 f 0.24847(8) -0.1505(4) 0.35854(12) 0.0182(10) 1
O12 O2- 8 f 0.18063(7) 0.2730(4) 0.24915(10) 0.0138(9) 1
O13 O2- 4 e 0 1.0939(7) 0.25 0.026(2) 1
O14 O2- 8 f 0.04002(7) 0.6280(4) 0.21792(10) 0.0141(9) 1
O15 O2- 8 f 0.07218(7) 0.6411(4) 0.36200(10) 0.0130(8) 1
O16 O2- 8 f 0.08235(8) 0.4729(4) 0.16954(10) 0.0117(9) 1
O17 O2- 8 f 0.16309(7) 0.2259(4) -0.00399(10) 0.0122(9) 1
loop_
_atom_site_aniso_label
_atom_site_aniso_type_symbol
_atom_site_aniso_U_11
_atom_site_aniso_U_22
_atom_site_aniso_U_33
_atom_site_aniso_U_12
_atom_site_aniso_U_13
_atom_site_aniso_U_23
Mo1 Mo5+ 0.01343(8) 0.00429(7) 0.01139(8) -0.00072(7) 0.01025(7) -0.00064(6)
Mo2 Mo5+ 0.00767(7) 0.00454(7) 0.00801(7) -0.00016(6) 0.00426(6) 0.00013(6)
Mo3 Mo5+ 0.00659(9) 0.01248(12) 0.00663(10) 0 0.00474(9) 0
Pb1 Pb2+ 0.0127(2) 0.265(3) 0.0228(4) -0.0046(8) 0.0077(3) 0.0515(8)
P1 P5+ 0.00703(20) 0.0055(2) 0.0074(2) -0.00023(18) 0.00503(18) -0.00122(18)
P2 P5+ 0.0127(2) 0.0061(2) 0.0085(2) 0.0014(2) 0.00822(20) 0.00091(19)
P3 P5+ 0.0077(2) 0.0055(2) 0.0059(2) 0.00128(18) 0.00454(18) 0.00067(18)
P4 P5+ 0.0067(2) 0.0066(2) 0.0103(2) 0.00031(19) 0.00494(19) 0.00206(19)
O1 O2- 0.0195(9) 0.0202(10) 0.0251(10) -0.0063(8) 0.0155(8) -0.0067(8)
O2 O2- 0.0179(8) 0.0140(8) 0.0168(8) -0.0020(7) 0.0133(7) -0.0068(7)
O3 O2- 0.0226(8) 0.0125(8) 0.0204(8) 0.0040(7) 0.0176(8) 0.0078(7)
O4 O2- 0.0284(9) 0.0077(7) 0.0253(9) -0.0033(7) 0.0235(8) -0.0064(7)
O5 O2- 0.0111(7) 0.0107(7) 0.0145(7) 0.0019(6) 0.0086(6) 0.0060(6)
O6 O2- 0.0104(7) 0.0190(9) 0.0101(7) -0.0038(6) 0.0069(6) -0.0003(6)
O7 O2- 0.0293(10) 0.0218(10) 0.0198(9) 0.0002(9) 0.0185(9) 0.0045(8)
O8 O2- 0.0167(8) 0.0186(9) 0.0165(8) -0.0113(7) 0.0118(7) -0.0086(7)
O9 O2- 0.0175(8) 0.0083(8) 0.0159(8) -0.0087(7) 0.0074(7) -0.0034(6)
O10 O2- 0.0181(8) 0.0126(8) 0.0140(7) 0.0079(7) 0.0121(7) 0.0045(6)
O11 O2- 0.0177(8) 0.0161(9) 0.0163(8) 0.0092(7) 0.0103(7) 0.0027(7)
O12 O2- 0.0109(7) 0.0197(9) 0.0095(7) 0.0031(7) 0.0067(6) 0.0045(6)
O13 O2- 0.0303(15) 0.0172(14) 0.0301(16) 0 0.0208(14) 0
O14 O2- 0.0099(6) 0.0235(9) 0.0125(7) 0.0024(7) 0.0092(6) 0.0010(7)
O15 O2- 0.0081(6) 0.0223(9) 0.0056(6) 0.0011(6) 0.0037(5) 0.0003(6)
O16 O2- 0.0125(7) 0.0138(8) 0.0095(7) 0.0013(6) 0.0080(6) -0.0029(6)
O17 O2- 0.0102(6) 0.0142(8) 0.0124(7) 0.0042(6) 0.0080(6) 0.0056(6)
#End of TTdata_417729-ICSD
#
