(C) 2022 by FIZ Karlsruhe - Leibniz Institute for Information Infrastructure.  All rights reserved.
data_238272-ICSD
_database_code_ICSD 238272
_audit_creation_date 2015-08-01
_chemical_name_common 'Tetrapotassium tris(uranyl(VI)) dioxo bis(arsenate(V))'
_chemical_formula_structural 'K4 ((U O2)3 O2 (As O4)2)'
_chemical_formula_sum 'As2 K4 O16 U3'
_exptl_crystal_density_diffrn 5.12
_diffrn_ambient_temperature 296.
_citation_title

;
High-temperature, high-pressure hydrothermal synthesis, characterization, and
structural relationships of layered uranyl arsenates
;
loop_
_citation_id
_citation_journal_full
_citation_year
_citation_journal_volume
_citation_page_first
_citation_page_last
_citation_journal_id_ASTM
primary 'Inorganic Chemistry' 2014 53 9065 9072 INOCAJ
loop_
_citation_author_citation_id
_citation_author_name
primary 'Liu, Hsin-Kuan'
primary 'Ramachandran, Eswaran'
primary 'Chen, Yi-Hsin'
primary 'Chang, Wen-Jung'
primary 'Lii, Kwang-Hwa'
_cell_length_a 6.7852(3)
_cell_length_b 17.3640(8)
_cell_length_c 7.1151(3)
_cell_angle_alpha 90.
_cell_angle_beta 98.8014(16)
_cell_angle_gamma 90.
_cell_volume 828.41
_cell_formula_units_Z 2
_space_group_name_H-M_alt 'P 1 21/c 1'
_space_group_IT_number 14
loop_
_space_group_symop_id
_space_group_symop_operation_xyz
1 'x, -y+1/2, z+1/2'
2 '-x, -y, -z'
3 '-x, y+1/2, -z+1/2'
4 'x, y, z'
loop_
_atom_type_symbol
_atom_type_oxidation_number
K1+ 1
U6+ 6
As5+ 5
O2- -2
loop_
_atom_site_label
_atom_site_type_symbol
_atom_site_symmetry_multiplicity
_atom_site_Wyckoff_symbol
_atom_site_fract_x
_atom_site_fract_y
_atom_site_fract_z
_atom_site_U_iso_or_equiv
_atom_site_occupancy
K1 K1+ 4 e 0.03803(19) 0.55113(7) 0.25737(17) 0.0178(3) 1
K2 K1+ 4 e 0.8284(3) 0.20183(9) 0.7224(3) 0.0391(5) 1
U1 U6+ 4 e 0.42999(3) 0.102921(12) 0.98432(3) 0.00799(11) 1
U2 U6+ 2 d 0.5 0. 0.5 0.00857(11) 1
As1 As5+ 4 e 0.29912(10) 0.18135(3) 0.47039(8) 0.00959(15) 1
O1 O2- 4 e 0.0551(8) 0.1886(3) 0.4519(8) 0.0273(12) 1
O2 O2- 4 e 0.4172(8) 0.2348(3) 0.9743(7) 0.0309(13) 1
O3 O2- 4 e 0.4141(7) 0.1273(2) 0.6553(6) 0.0173(10) 1
O4 O2- 4 e 0.3686(8) 0.1222(2) 0.3026(6) 0.0204(11) 1
O5 O2- 4 e 0.1625(7) 0.0847(3) 0.9392(6) 0.0172(10) 1
O6 O2- 4 e 0.6935(7) 0.1270(3) 0.0184(7) 0.0205(10) 1
O7 O2- 4 e 0.4827(7) 0.5025(2) 0.3146(6) 0.0153(10) 1
O8 O2- 4 e 0.7547(7) 0.0339(3) 0.5437(6) 0.0168(10) 1
loop_
_atom_site_aniso_label
_atom_site_aniso_type_symbol
_atom_site_aniso_U_11
_atom_site_aniso_U_22
_atom_site_aniso_U_33
_atom_site_aniso_U_12
_atom_site_aniso_U_13
_atom_site_aniso_U_23
K1 K1+ 0.0176(8) 0.0196(7) 0.0156(7) -0.0006(6) 0.0003(6) -0.0007(6)
K2 K1+ 0.0451(11) 0.0495(11) 0.0259(10) -0.0219(9) 0.0158(8) -0.0068(7)
U1 U6+ 0.01108(17) 0.00669(15) 0.00645(14) 0.00137(8) 0.00213(10) 0.00068(7)
U2 U6+ 0.0114(2) 0.00847(18) 0.00623(17) 0.00102(12) 0.00265(13) 0.00048(10)
As1 As5+ 0.0159(3) 0.0057(3) 0.0072(3) 0.0021(2) 0.0020(2) 0.0001(2)
O1 O2- 0.019(3) 0.036(3) 0.028(3) 0.009(2) 0.005(2) -0.001(2)
O2 O2- 0.049(4) 0.011(3) 0.033(3) 0.010(2) 0.007(3) 0.002(2)
O3 O2- 0.025(3) 0.018(2) 0.007(2) 0.007(2) -0.0007(19) 0.0042(18)
O4 O2- 0.037(3) 0.017(2) 0.008(2) 0.009(2) 0.007(2) -0.0044(17)
O5 O2- 0.015(2) 0.022(2) 0.015(2) 0.000(2) 0.0034(19) -0.0029(19)
O6 O2- 0.014(3) 0.025(3) 0.023(3) 0.006(2) 0.003(2) 0.009(2)
O7 O2- 0.028(3) 0.009(2) 0.009(2) -0.0075(19) 0.0046(19) -0.0013(15)
O8 O2- 0.016(3) 0.018(2) 0.016(2) 0.003(2) 0.0007(19) 0.0033(18)
#End of TTdata_238272-ICSD
#
