(C) 2022 by FIZ Karlsruhe - Leibniz Institute for Information Infrastructure.  All rights reserved.
data_84777-ICSD
_database_code_ICSD 84777
_audit_creation_date 1999-01-19
_chemical_name_common 'Trisodium diindium tris(arsenate(V))'
_chemical_formula_structural 'Na3 In2 (As O4)3'
_chemical_formula_sum 'As3 In2 Na3 O12'
_chemical_name_structure_type Alluaudite-frame#Na1.5Mn2.5Al(PO4)3
_exptl_crystal_density_diffrn 4.58
_diffrn_ambient_temperature 296.
_citation_title

;
Hydrothermal synthesis and structures of Na3 In2 (P O4)3 and Na3 In2 (As O4)3:
synthetic modifications of the mineral alluaudite
;
loop_
_citation_id
_citation_journal_full
_citation_year
_citation_journal_volume
_citation_page_first
_citation_page_last
_citation_journal_id_ASTM
primary 'Journal of Solid State Chemistry' 1997 131 131 137 JSSCBI
loop_
_citation_author_citation_id
_citation_author_name
primary 'Lii, K.-H.'
primary 'Ye, J.'
_cell_length_a 12.6037(2)
_cell_length_b 13.1711(2)
_cell_length_c 6.8342(1)
_cell_angle_alpha 90.
_cell_angle_beta 113.743(1)
_cell_angle_gamma 90.
_cell_volume 1038.48
_cell_formula_units_Z 4
_space_group_name_H-M_alt 'C 1 2/c 1'
_space_group_IT_number 15
loop_
_space_group_symop_id
_space_group_symop_operation_xyz
1 'x, -y, z+1/2'
2 '-x, -y, -z'
3 '-x, y, -z+1/2'
4 'x, y, z'
5 'x+1/2, -y+1/2, z+1/2'
6 '-x+1/2, -y+1/2, -z'
7 '-x+1/2, y+1/2, -z+1/2'
8 'x+1/2, y+1/2, z'
loop_
_atom_type_symbol
_atom_type_oxidation_number
Na1+ 1
In3+ 3
As5+ 5
O2- -2
loop_
_atom_site_label
_atom_site_type_symbol
_atom_site_symmetry_multiplicity
_atom_site_Wyckoff_symbol
_atom_site_fract_x
_atom_site_fract_y
_atom_site_fract_z
_atom_site_B_iso_or_equiv
_atom_site_occupancy
Na1 Na1+ 4 e 0 0.276(1) 0.25 0.9(5) 1.
Na2 Na1+ 4 e 0 -.002(1) 0.75 3.9(6) 1.
Na3 Na1+ 4 b 0.5 0 0.5 1.8(5) 1.
In1 In3+ 8 f 0.2228(2) 0.1563(2) 0.1456(5) 0.63(6) 1.
As1 As5+ 8 f 0.2388(4) 0.8961(3) 0.1324(7) 0.7(1) 1.
As2 As5+ 4 e 0 0.2766(4) 0.75 0.8(1) 1.
O1 O2- 8 f 0.372(2) -.079(2) 0.180(3) 1.7(6) 1.
O2 O2- 8 f 0.230(1) 0.824(1) 0.336(3) -.4(4) 1.
O3 O2- 8 f 0.158(2) 0.002(1) 0.122(3) 1.9(5) 1.
O4 O2- 8 f 0.168(2) 0.835(2) 0.891(3) 1.8(6) 1.
O5 O2- 8 f 0.044(2) 0.202(1) 0.973(3) 0.2(5) 1.
O6 O2- 8 f 0.094(2) 0.360(1) 0.716(3) 0.4(5) 1.
#End of TTdata_84777-ICSD
#
