(C) 2022 by FIZ Karlsruhe - Leibniz Institute for Information Infrastructure.  All rights reserved.
data_238270-ICSD
_database_code_ICSD 238270
_audit_creation_date 2015-08-01
_chemical_name_common '14-sodium pentakis(uranyl(VI)) octaarsenate(V) dihydrate'
_chemical_formula_structural 'Na14 ((U O2)5 (As O4)8) (H2 O)2'
_chemical_formula_sum 'H4 As8 Na14 O44 U5'
_exptl_crystal_density_diffrn 4.47
_diffrn_ambient_temperature 296.
_citation_title

;
High-temperature, high-pressure hydrothermal synthesis, characterization, and
structural relationships of layered uranyl arsenates
;
loop_
_citation_id
_citation_journal_full
_citation_year
_citation_journal_volume
_citation_page_first
_citation_page_last
_citation_journal_id_ASTM
primary 'Inorganic Chemistry' 2014 53 9065 9072 INOCAJ
loop_
_citation_author_citation_id
_citation_author_name
primary 'Liu, Hsin-Kuan'
primary 'Ramachandran, Eswaran'
primary 'Chen, Yi-Hsin'
primary 'Chang, Wen-Jung'
primary 'Lii, Kwang-Hwa'
_cell_length_a 7.0005(3)
_cell_length_b 12.1324(4)
_cell_length_c 13.7428(5)
_cell_angle_alpha 64.175(2)
_cell_angle_beta 89.092(2)
_cell_angle_gamma 85.548(2)
_cell_volume 1047.26
_cell_formula_units_Z 1
_space_group_name_H-M_alt 'P -1'
_space_group_IT_number 2
loop_
_space_group_symop_id
_space_group_symop_operation_xyz
1 '-x, -y, -z'
2 'x, y, z'
loop_
_atom_type_symbol
_atom_type_oxidation_number
Na1+ 1
U6+ 6
As5+ 5
O2- -2
H1+ 1
loop_
_atom_site_label
_atom_site_type_symbol
_atom_site_symmetry_multiplicity
_atom_site_Wyckoff_symbol
_atom_site_fract_x
_atom_site_fract_y
_atom_site_fract_z
_atom_site_U_iso_or_equiv
_atom_site_occupancy
Na1 Na1+ 2 i 0.5089(4) 0.4842(2) 0.26651(17) 0.0432(6) 1
Na2 Na1+ 2 i 0.2662(2) 0.81513(17) -0.00179(14) 0.0190(4) 1
Na3 Na1+ 1 h 0.5 0.5 0.5 0.0253(6) 1
Na4 Na1+ 2 i 0.7592(3) 0.83418(18) 0.62993(15) 0.0216(4) 1
Na5 Na1+ 2 i 1.0229(3) 0.51865(18) 0.37176(16) 0.0292(5) 1
Na6 Na1+ 2 i 0.4949(3) 0.98870(18) 0.23634(19) 0.0307(5) 1
Na7 Na1+ 2 i 0.9867(3) 0.99633(18) 0.2646(2) 0.0380(6) 1
Na8 Na1+ 2 i 0.9955(7) 0.5329(4) 0.0774(4) 0.0468(13) 0.5
U1 U6+ 2 i 0.77927(2) 0.800781(14) 0.136989(12) 0.00793(4) 1
U2 U6+ 2 i 0.26336(2) 0.790975(14) 0.513134(12) 0.00815(4) 1
U3 U6+ 1 e 0.5 0.5 0. 0.00980(5) 1
As1 As5+ 2 i 0.76541(6) 0.77347(4) -0.08214(3) 0.00892(8) 1
As2 As5+ 2 i 0.28487(6) 0.75641(4) 0.75735(3) 0.00958(9) 1
As3 As5+ 2 i 0.28974(6) 0.75300(4) 0.25737(3) 0.00805(8) 1
As4 As5+ 2 i 0.78127(6) 0.75352(4) 0.42586(3) 0.01110(9) 1
O1 O2- 2 i 0.7744(4) 0.8716(3) -0.2112(2) 0.0149(6) 1
O2 O2- 2 i 0.9566(4) 0.7592(3) -0.0037(2) 0.0157(7) 1
O3 O2- 2 i 0.5939(4) 0.8171(3) -0.0159(2) 0.0153(6) 1
O4 O2- 2 i 0.7306(4) 0.6306(3) -0.0716(2) 0.0162(7) 1
O5 O2- 2 i 0.2858(4) 0.8640(3) 0.8003(2) 0.0161(7) 1
O6 O2- 2 i 0.4613(4) 0.7545(3) 0.6725(2) 0.0191(7) 1
O7 O2- 2 i 0.0940(4) 0.7734(3) 0.6763(2) 0.0145(6) 1
O8 O2- 2 i 0.2946(5) 0.6122(3) 0.8601(3) 0.0249(8) 1
O9 O2- 2 i 0.3470(5) 0.6050(3) 0.3329(2) 0.0183(7) 1
O10 O2- 2 i 0.0989(4) 0.7703(3) 0.1782(3) 0.0235(8) 1
O11 O2- 2 i 0.4611(4) 0.8279(3) 0.1729(2) 0.0156(6) 1
O12 O2- 2 i 0.2385(4) 0.8309(3) 0.3322(2) 0.0146(6) 1
O13 O2- 2 i 0.8212(6) 0.6062(3) 0.4624(3) 0.0346(9) 1
O14 O2- 2 i 0.9384(4) 0.8096(3) 0.4813(2) 0.0180(7) 1
O15 O2- 2 i 0.7836(4) 0.8386(3) 0.2906(2) 0.0161(7) 1
O16 O2- 2 i 0.5696(5) 0.7902(5) 0.4662(3) 0.0494(13) 1
O17 O2- 2 i 0.7953(5) 0.9627(3) 0.0694(2) 0.0186(7) 1
O18 O2- 2 i 0.7654(4) 0.6371(3) 0.2097(2) 0.0178(7) 1
O19 O2- 2 i 0.2544(5) 0.9537(3) 0.4657(3) 0.0271(8) 1
O20 O2- 2 i 0.2728(5) 0.6260(3) 0.5651(2) 0.0196(7) 1
O21 O2- 2 i 0.3987(4) 0.5778(3) 0.0767(3) 0.0187(7) 1
O22 O2- 2 i 1.1221(5) 0.4193(4) 0.2572(3) 0.0379(10) 1
H1 H1+ 2 i 1.2609 0.4118 0.2553 0.046 1
H2 H1+ 2 i 1.0782 0.3373 0.2875 0.046 1
loop_
_atom_site_aniso_label
_atom_site_aniso_type_symbol
_atom_site_aniso_U_11
_atom_site_aniso_U_22
_atom_site_aniso_U_33
_atom_site_aniso_U_12
_atom_site_aniso_U_13
_atom_site_aniso_U_23
Na1 Na1+ 0.0744(18) 0.0316(13) 0.0240(12) 0.0281(12) -0.0155(11) -0.0170(10)
Na2 Na1+ 0.0134(9) 0.0219(10) 0.0209(10) -0.0015(7) 0.0024(7) -0.0088(8)
Na3 Na1+ 0.0364(17) 0.0204(14) 0.0171(14) 0.0079(12) -0.0075(12) -0.0077(12)
Na4 Na1+ 0.0167(9) 0.0256(11) 0.0262(10) -0.0034(8) 0.0053(8) -0.0147(9)
Na5 Na1+ 0.0382(12) 0.0231(11) 0.0241(11) -0.0054(9) -0.0038(9) -0.0075(9)
Na6 Na1+ 0.0162(10) 0.0194(10) 0.0589(15) -0.0015(8) 0.0008(9) -0.0193(10)
Na7 Na1+ 0.0137(10) 0.0165(11) 0.0702(17) -0.0016(8) -0.0011(10) -0.0061(11)
Na8 Na1+ 0.037(3) 0.027(3) 0.059(3) 0.004(2) -0.015(2) -0.003(2)
U1 U6+ 0.00706(7) 0.00949(8) 0.00809(7) -0.00069(6) 0.00000(5) -0.00460(6)
U2 U6+ 0.00723(7) 0.01022(8) 0.00741(7) -0.00092(6) 0.00015(5) -0.00419(6)
U3 U6+ 0.01179(11) 0.00855(11) 0.00854(10) -0.00148(8) 0.00026(8) -0.00313(8)
As1 As5+ 0.0100(2) 0.0103(2) 0.00753(19) -0.00251(16) 0.00074(15) -0.00463(16)
As2 As5+ 0.0113(2) 0.0102(2) 0.00772(19) 0.00066(16) -0.00198(15) -0.00443(16)
As3 As5+ 0.00664(19) 0.0110(2) 0.00747(19) -0.00084(15) 0.00025(15) -0.00491(16)
As4 As5+ 0.0084(2) 0.0175(2) 0.0081(2) -0.00343(17) 0.00040(15) -0.00590(17)
O1 O2- 0.0180(16) 0.0135(16) 0.0115(15) -0.0041(12) 0.0014(12) -0.0035(13)
O2 O2- 0.0103(15) 0.0259(18) 0.0132(15) -0.0005(13) 0.0002(12) -0.0109(14)
O3 O2- 0.0092(15) 0.0264(18) 0.0148(15) 0.0020(13) -0.0034(12) -0.0137(14)
O4 O2- 0.0203(17) 0.0105(15) 0.0186(16) -0.0073(13) 0.0032(13) -0.0062(13)
O5 O2- 0.0220(17) 0.0130(16) 0.0181(16) -0.0030(13) -0.0009(13) -0.0110(13)
O6 O2- 0.0111(15) 0.034(2) 0.0186(17) -0.0019(14) 0.0020(13) -0.0175(15)
O7 O2- 0.0106(15) 0.0231(17) 0.0101(14) 0.0030(13) -0.0037(11) -0.0082(13)
O8 O2- 0.032(2) 0.0154(17) 0.0192(17) -0.0013(15) -0.0125(15) -0.0002(14)
O9 O2- 0.0261(18) 0.0119(16) 0.0155(16) 0.0018(13) -0.0011(13) -0.0052(13)
O10 O2- 0.0100(16) 0.042(2) 0.0275(19) 0.0010(15) -0.0057(13) -0.0238(17)
O11 O2- 0.0117(15) 0.0171(16) 0.0169(16) -0.0028(12) 0.0042(12) -0.0063(13)
O12 O2- 0.0207(16) 0.0139(16) 0.0096(14) 0.0031(13) -0.0018(12) -0.0063(12)
O13 O2- 0.065(3) 0.0158(18) 0.0189(18) -0.0077(18) -0.0092(18) -0.0029(15)
O14 O2- 0.0111(15) 0.0317(19) 0.0191(16) -0.0009(13) -0.0039(12) -0.0183(15)
O15 O2- 0.0222(17) 0.0168(16) 0.0084(14) -0.0013(13) -0.0024(12) -0.0047(13)
O16 O2- 0.0094(18) 0.116(4) 0.040(2) -0.007(2) 0.0084(16) -0.049(3)
O17 O2- 0.0224(17) 0.0128(16) 0.0176(16) -0.0011(13) 0.0005(13) -0.0040(13)
O18 O2- 0.0200(17) 0.0138(16) 0.0180(16) -0.0039(13) 0.0001(13) -0.0051(13)
O19 O2- 0.046(2) 0.0166(18) 0.0207(18) -0.0093(16) 0.0033(16) -0.0086(15)
O20 O2- 0.0305(19) 0.0137(16) 0.0144(16) 0.0021(14) -0.0038(13) -0.0065(13)
O21 O2- 0.0205(17) 0.0199(17) 0.0198(17) -0.0050(14) 0.0054(13) -0.0121(14)
O22 O2- 0.030(2) 0.046(3) 0.033(2) -0.0163(19) 0.0050(17) -0.0106(19)
#End of TTdata_238270-ICSD
#
