(C) 2022 by FIZ Karlsruhe - Leibniz Institute for Information Infrastructure.  All rights reserved.
data_69797-ICSD
_database_code_ICSD 69797
_audit_creation_date 1993-01-06
_chemical_name_common 'Potassium oxovanadium(IV) tetrakis(hydrogenphosphate)'
_chemical_formula_structural 'K2 (V O)3 (H P O4)4'
_chemical_formula_sum 'H4 K2 O19 P4 V3'
_exptl_crystal_density_diffrn 2.8
_citation_title

;
Hydrothermal synthesis and characterization of vanadyl(IV) hydrogenphosphate,
K2(VO)3(HPO4)4
;
loop_
_citation_id
_citation_journal_full
_citation_year
_citation_journal_volume
_citation_page_first
_citation_page_last
_citation_journal_id_ASTM
primary 'Journal of Solid State Chemistry' 1991 91 331 338 JSSCBI
loop_
_citation_author_citation_id
_citation_author_name
primary 'Lii, K.-H.'
primary 'Tsai, H.-J.'
_cell_length_a 10.756(1)
_cell_length_b 9.147(3)
_cell_length_c 8.662(1)
_cell_angle_alpha 90.
_cell_angle_beta 112.842(9)
_cell_angle_gamma 90.
_cell_volume 785.38
_cell_formula_units_Z 2
_space_group_name_H-M_alt 'P 1 2/c 1'
_space_group_IT_number 13
loop_
_space_group_symop_id
_space_group_symop_operation_xyz
1 'x, -y, z+1/2'
2 '-x, -y, -z'
3 '-x, y, -z+1/2'
4 'x, y, z'
loop_
_atom_type_symbol
_atom_type_oxidation_number
K1+ 1
V4+ 4
P5+ 5
O2- -2
H1+ 1
loop_
_atom_site_label
_atom_site_type_symbol
_atom_site_symmetry_multiplicity
_atom_site_Wyckoff_symbol
_atom_site_fract_x
_atom_site_fract_y
_atom_site_fract_z
_atom_site_B_iso_or_equiv
_atom_site_occupancy
K1 K1+ 2 f 0.5 0.17281(14) 0.25 . 1.
K2 K1+ 2 e 0 0.61024(15) 0.25 . 1.
V1 V4+ 4 g 0.83952(16) 0.24541(14) 0.14825(16) . 0.5
V2 V4+ 4 g 0.77584(16) 0.25147(14) 0.11101(16) . 0.5
V3 V4+ 4 g 0.48695(18) 0.74338(12) 0.21487(11) . 0.5
P1 P5+ 4 g 0.73099(8) 0.49777(9) 0.85285(10) . 1.
P2 P5+ 4 g 0.23805(8) 0.94864(9) 0.19832(10) . 1.
O1 O2- 4 g 0.6676(3) 0.6086(3) -.0596(3) . 1.
O2 O2- 4 g 0.38377(24) 0.1031(3) 0.7813(3) . 1.
O3 O2- 2 e 0 0.2357(4) 0.25 . 1.
O4 O2- 4 g 0.16739(23) 0.6026(3) 0.0213(3) . 1.
O5 O2- 4 g 0.76938(24) 0.8875(3) 0.7779(3) . 1.
O6 O2- 4 g 0.38218(24) 0.4116(3) 0.7813(3) . 1.
O7 O2- 4 g 0.82160(24) 0.0861(3) -.0122(3) . 1.
O8 O2- 4 g 0.80375(24) 0.5891(3) 0.7699(3) . 1.
O9 O2- 4 g 0.8508(3) 0.8687(3) 0.2194(3) . 1.
O10 O2- 4 g 0.60891(25) 0.2618(3) -.0088(3) . 1.
H1 H1+ 4 g 0.657 0.571 0.032 3.90(14) 1.
H2 H1+ 4 g 0.842 0.913 0.128 3.60(23) 1.
loop_
_atom_site_aniso_label
_atom_site_aniso_type_symbol
_atom_site_aniso_U_11
_atom_site_aniso_U_22
_atom_site_aniso_U_33
_atom_site_aniso_U_12
_atom_site_aniso_U_13
_atom_site_aniso_U_23
K1 K1+ 0.0191(6) 0.0147(6) 0.0709(11) 0 0.0223(7) 0
K2 K1+ 0.0213(6) 0.0182(6) 0.0631(10) 0 0.0197(6) 0
V1 V4+ 0.0060(7) 0.0044(6) 0.0063(6) 0.0000(6) 0.0028(5) -.0001(4)
V2 V4+ 0.0067(7) 0.0053(6) 0.0054(6) 0.0003(6) 0.0024(5) 0.0005(4)
V3 V4+ 0.0051(8) 0.0062(4) 0.0077(9) 0.0005(4) 0.0002(8) -.0001(3)
P1 P5+ 0.0097(4) 0.0065(4) 0.0078(4) -.0009(3) 0.0043(3) 0.0008(3)
P2 P5+ 0.0086(4) 0.0056(4) 0.0077(4) -.0002(3) 0.0033(3) -.0016(3)
O1 O2- 0.0300(15) 0.0160(13) 0.0165(12) 0.0057(11) 0.0153(11) 0.0012(11)
O2 O2- 0.0099(11) 0.0134(12) 0.0156(12) -.0034(9) 0.0003(9) 0.0035(10)
O3 O2- 0.0088(16) 0.0146(17) 0.0090(15) 0 0.0008(12) 0
O4 O2- 0.0109(11) 0.0132(12) 0.0108(11) -.0004(9) 0.0040(9) 0.0056(9)
O5 O2- 0.0140(12) 0.0060(11) 0.0141(11) 0.0011(9) 0.0078(9) -.0023(9)
O6 O2- 0.0108(11) 0.0166(2) 0.0097(11) 0.0044(10) 0.0013(9) 0.0000(9)
O7 O2- 0.0140(11) 0.0112(12) 0.0071(11) 0.0011(9) 0.0021(9) -.0020(9)
O8 O2- 0.0121(11) 0.0097(12) 0.0104(11) -.0016(9) 0.0034(9) 0.0036(9)
O9 O2- 0.0257(14) 0.0127(12) 0.0196(13) 0.0074(10) 0.0166(11) 0.0036(10)
O10 O2- 0.0164(12) 0.0130(12) 0.0117(11) -.0004(10) 0.0066(10) 0.0011(9)
#End of TTdata_69797-ICSD
#
