(C) 2022 by FIZ Karlsruhe - Leibniz Institute for Information Infrastructure.  All rights reserved.
data_59364-ICSD
_database_code_ICSD 59364
_audit_creation_date 1999-06-02
_chemical_name_common 'Trigallium phosphorus(V) oxide'
_chemical_formula_structural 'Ga3 P O7'
_chemical_formula_sum 'Ga3 O7 P1'
_chemical_name_structure_type Fe3PO4O3
_exptl_crystal_density_diffrn 4.84
_citation_title 'Ga3 P O7'
loop_
_citation_id
_citation_journal_full
_citation_year
_citation_journal_volume
_citation_page_first
_citation_page_last
_citation_journal_id_ASTM
primary 'Acta Crystallographica, Section C: Crystal Structure Communications'
1998 54 5 7 ACSCEE
loop_
_citation_author_citation_id
_citation_author_name
primary 'Boudin, S.'
primary 'Lii, K.-H.'
_cell_length_a 7.885(1)
_cell_length_b 7.885(1)
_cell_length_c 6.727(1)
_cell_angle_alpha 90.
_cell_angle_beta 90.
_cell_angle_gamma 120.
_cell_volume 362.21
_cell_formula_units_Z 3
_space_group_name_H-M_alt 'R 3 m H'
_space_group_IT_number 160
loop_
_space_group_symop_id
_space_group_symop_operation_xyz
1 '-x+y, y, z'
2 'x, x-y, z'
3 '-y, -x, z'
4 '-x+y, -x, z'
5 '-y, x-y, z'
6 'x, y, z'
7 '-x+y+2/3, y+1/3, z+1/3'
8 'x+2/3, x-y+1/3, z+1/3'
9 '-y+2/3, -x+1/3, z+1/3'
10 '-x+y+2/3, -x+1/3, z+1/3'
11 '-y+2/3, x-y+1/3, z+1/3'
12 'x+2/3, y+1/3, z+1/3'
13 '-x+y+1/3, y+2/3, z+2/3'
14 'x+1/3, x-y+2/3, z+2/3'
15 '-y+1/3, -x+2/3, z+2/3'
16 '-x+y+1/3, -x+2/3, z+2/3'
17 '-y+1/3, x-y+2/3, z+2/3'
18 'x+1/3, y+2/3, z+2/3'
loop_
_atom_type_symbol
_atom_type_oxidation_number
Ga3+ 3
P5+ 5
O2- -2
loop_
_atom_site_label
_atom_site_type_symbol
_atom_site_symmetry_multiplicity
_atom_site_Wyckoff_symbol
_atom_site_fract_x
_atom_site_fract_y
_atom_site_fract_z
_atom_site_B_iso_or_equiv
_atom_site_occupancy
Ga1 Ga3+ 9 b 0.79674(3) 0.20326(3) 0.7448(3) . 1.
P1 P5+ 3 a 0 0 0 . 1.
O1 O2- 3 a 0 0 0.234(1) . 1.
O2 O2- 9 b 0.5405(3) 0.4595(3) 0.8493(6) . 1.
O3 O2- 9 b 0.5603(3) 0.4397(3) 0.2729(6) . 1.
loop_
_atom_site_aniso_label
_atom_site_aniso_type_symbol
_atom_site_aniso_U_11
_atom_site_aniso_U_22
_atom_site_aniso_U_33
_atom_site_aniso_U_12
_atom_site_aniso_U_13
_atom_site_aniso_U_23
Ga1 Ga3+ 0.0047(2) 0.0047(2) 0.0026(2) 0.0025(2) 0.00013(7) -.00013(7)
P1 P5+ 0.0053(4) 0.0053(4) 0.0017(7) 0.0026(2) 0 0
O1 O2- 0.0066(14) 0.0066(14) 0.001(2) 0.0033(7) 0 0
O2 O2- 0.0057(10) 0.0057(10) 0.0041(13) 0.0021(10) 0.0011(5) -.0011(5)
O3 O2- 0.0145(12) 0.0145(12) 0.0095(15) 0.0097(14) -.0027(6) 0.0027(6)
#End of TTdata_59364-ICSD
#
