(C) 2022 by FIZ Karlsruhe - Leibniz Institute for Information Infrastructure.  All rights reserved.
data_173282-ICSD
_database_code_ICSD 173282
_audit_creation_date 2008-08-01
_chemical_name_common 'Dirubidium terbium gallium tetrasilicate'
_chemical_formula_structural 'Rb2 Tb Ga Si4 O12'
_chemical_formula_sum 'Ga1 O12 Rb2 Si4 Tb1'
_chemical_name_structure_type Rb2YGaSi4O12
_exptl_crystal_density_diffrn 3.81
_diffrn_ambient_temperature 293.
_citation_title

;
Rb2 RE Ga Si4 O12 (RE = Y, Eu, Gd, Tb): luminescent mixed-anion double layer
silicates containing chains of edge-sharing RE O7 pentagonal bipyramids
;
loop_
_citation_id
_citation_journal_full
_citation_year
_citation_journal_volume
_citation_page_first
_citation_page_last
_citation_journal_id_ASTM
primary 'Inorganic Chemistry' 2008 47 1910 1912 INOCAJ
loop_
_citation_author_citation_id
_citation_author_name
primary 'Lee Cheng shiuan'
primary 'Liao Yueh Chun'
primary 'Hsu Jungtsung'
primary 'Wang Sue Lein'
primary 'Lii Kwanghwa'
_cell_length_a 22.5451(14)
_cell_length_b 7.3122(5)
_cell_length_c 14.8809(9)
_cell_angle_alpha 90.
_cell_angle_beta 90.2630(10)
_cell_angle_gamma 90.
_cell_volume 2453.15
_cell_formula_units_Z 8
_space_group_name_H-M_alt 'I 1 2/a 1'
_space_group_IT_number 15
loop_
_space_group_symop_id
_space_group_symop_operation_xyz
1 'x+1/2, -y, z'
2 '-x, -y, -z'
3 '-x+1/2, y, -z'
4 'x, y, z'
5 'x, -y+1/2, z+1/2'
6 '-x+1/2, -y+1/2, -z+1/2'
7 '-x, y+1/2, -z+1/2'
8 'x+1/2, y+1/2, z+1/2'
loop_
_atom_type_symbol
_atom_type_oxidation_number
Rb1+ 1
Tb3+ 3
Ga3+ 3
Si4+ 4
O2- -2
loop_
_atom_site_label
_atom_site_type_symbol
_atom_site_symmetry_multiplicity
_atom_site_Wyckoff_symbol
_atom_site_fract_x
_atom_site_fract_y
_atom_site_fract_z
_atom_site_U_iso_or_equiv
_atom_site_occupancy
Rb1 Rb1+ 8 f 0.558655(16) 0.74637(5) 0.02373(3) 0.01726(9) 1
Rb2 Rb1+ 8 f 0.78469(2) -0.01196(7) -0.16788(4) 0.03261(12) 1
Tb1 Tb3+ 8 f 0.518990(7) 0.96792(2) 0.269258(10) 0.00714(6) 1
Ga1 Ga3+ 8 f 0.680108(17) 0.55036(5) -0.09396(3) 0.00799(9) 1
Si1 Si4+ 8 f 0.58219(4) 1.22228(13) 0.09116(6) 0.00749(18) 1
Si2 Si4+ 8 f 0.81229(4) 0.47894(13) -0.11043(6) 0.00745(18) 1
Si3 Si4+ 8 f 0.86933(4) 0.60912(13) -0.29143(6) 0.00697(18) 1
Si4 Si4+ 8 f 0.91239(4) 0.27388(13) -0.38344(6) 0.00701(18) 1
O1 O2- 8 f 0.57679(12) 1.0447(4) 0.15316(17) 0.0126(5) 1
O2 O2- 8 f 0.57380(11) 1.1566(4) -0.01468(16) 0.0129(5) 1
O3 O2- 8 f 0.53751(11) 1.3863(4) 0.11243(17) 0.0131(5) 1
O4 O2- 8 f 0.65195(11) 1.2896(4) 0.09575(18) 0.0143(5) 1
O5 O2- 8 f 0.81791(11) 0.6100(4) -0.02408(16) 0.0127(5) 1
O6 O2- 8 f 0.74446(11) 0.4239(4) -0.13395(18) 0.0152(5) 1
O7 O2- 8 f 0.84126(13) 0.5949(4) -0.19113(17) 0.0183(6) 1
O8 O2- 8 f 0.86291(11) 0.4078(4) -0.33845(18) 0.0131(5) 1
O9 O2- 8 f 0.93709(11) 0.6737(4) -0.28859(17) 0.0119(5) 1
O10 O2- 8 f 0.82346(11) 0.7392(4) -0.34385(19) 0.0170(6) 1
O11 O2- 8 f 0.89063(11) 0.0617(4) -0.37993(17) 0.0111(5) 1
O12 O2- 8 f 0.97244(11) 0.2693(4) -0.32563(16) 0.0099(5) 1
loop_
_atom_site_aniso_label
_atom_site_aniso_type_symbol
_atom_site_aniso_U_11
_atom_site_aniso_U_22
_atom_site_aniso_U_33
_atom_site_aniso_U_12
_atom_site_aniso_U_13
_atom_site_aniso_U_23
Rb1 Rb1+ 0.01332(18) 0.01694(19) 0.02155(19) 0.00124(13) 0.00337(14)
-0.00203(14)
Rb2 Rb1+ 0.0266(2) 0.0323(3) 0.0389(3) -0.01079(19) -0.0021(2) -0.0101(2)
Tb1 Tb3+ 0.00719(9) 0.00691(10) 0.00733(9) -0.00076(5) 0.00113(6) 0.00001(5)
Ga1 Ga3+ 0.00641(18) 0.00892(19) 0.00864(18) 0.00020(14) 0.00070(14) 0.00115(13)
Si1 Si4+ 0.0069(4) 0.0083(4) 0.0072(4) -0.0009(3) 0.0012(3) 0.0003(3)
Si2 Si4+ 0.0058(4) 0.0094(5) 0.0072(4) 0.0011(3) 0.0009(3) 0.0005(3)
Si3 Si4+ 0.0062(4) 0.0073(4) 0.0074(4) 0.0009(3) 0.0019(3) 0.0009(3)
Si4 Si4+ 0.0065(4) 0.0071(4) 0.0074(4) 0.0002(3) 0.0000(3) -0.0003(3)
O1 O2- 0.0138(13) 0.0121(13) 0.0121(12) -0.0001(10) 0.0042(10) 0.0029(10)
O2 O2- 0.0163(12) 0.0138(13) 0.0084(11) -0.0007(10) -0.0003(10) 0.0000(9)
O3 O2- 0.0113(12) 0.0133(13) 0.0148(12) 0.0028(10) 0.0041(10) -0.0010(10)
O4 O2- 0.0076(12) 0.0115(13) 0.0237(14) -0.0021(10) 0.0001(10) -0.0008(11)
O5 O2- 0.0150(13) 0.0138(13) 0.0093(11) -0.0012(10) 0.0012(10) -0.0002(10)
O6 O2- 0.0083(12) 0.0170(14) 0.0203(13) 0.0043(10) -0.0011(10) -0.0052(11)
O7 O2- 0.0247(15) 0.0197(15) 0.0105(12) 0.0023(12) 0.0089(11) 0.0035(11)
O8 O2- 0.0064(11) 0.0126(13) 0.0203(13) -0.0011(10) 0.0014(10) -0.0073(10)
O9 O2- 0.0082(11) 0.0099(13) 0.0176(12) -0.0029(10) -0.0006(10) -0.0016(10)
O10 O2- 0.0102(12) 0.0176(15) 0.0233(14) -0.0021(10) -0.0016(11) 0.0096(11)
O11 O2- 0.0085(12) 0.0084(12) 0.0165(12) -0.0027(9) -0.0016(10) -0.0011(10)
O12 O2- 0.0082(11) 0.0107(13) 0.0106(11) -0.0015(9) -0.0023(9) 0.0000(9)
#End of TTdata_173282-ICSD
#
