(C) 2022 by FIZ Karlsruhe - Leibniz Institute for Information Infrastructure.  All rights reserved.
data_261175-ICSD
_database_code_ICSD 261175
_audit_creation_date 2011-02-01
_chemical_name_common 'Digallium tris(tellurite(IV)) - beta'
_chemical_formula_structural 'Ga2 (Te O3)3'
_chemical_formula_sum 'Ga2 O9 Te3'
_chemical_name_structure_type Zemannite-frame#Na2Zn2(TeO3)3
_exptl_crystal_density_diffrn 4.01
_diffrn_ambient_temperature 293.
_citation_title

;
A series of new ternary and quaternary compounds in the Li(I)-Ga(III)-Te(IV)-O
System
;
loop_
_citation_id
_citation_journal_full
_citation_year
_citation_journal_volume
_citation_page_first
_citation_page_last
_citation_journal_id_ASTM
primary 'Inorganic Chemistry' 2010 49 11573 11580 INOCAJ
loop_
_citation_author_citation_id
_citation_author_name
primary 'Kong Fang'
primary 'Xu Xiang'
primary 'Mao Jiang Gao'
_cell_length_a 9.2291(18)
_cell_length_b 9.2291(18)
_cell_length_c 7.488(2)
_cell_angle_alpha 90.
_cell_angle_beta 90.
_cell_angle_gamma 120.
_cell_volume 552.35
_cell_formula_units_Z 2
_space_group_name_H-M_alt 'P 63/m'
_space_group_IT_number 176
loop_
_space_group_symop_id
_space_group_symop_operation_xyz
1 '-x+y, -x, -z+1/2'
2 '-y, x-y, -z+1/2'
3 'x, y, -z+1/2'
4 'x-y, x, -z'
5 'y, -x+y, -z'
6 '-x, -y, -z'
7 'x-y, x, z+1/2'
8 'y, -x+y, z+1/2'
9 '-x, -y, z+1/2'
10 '-x+y, -x, z'
11 '-y, x-y, z'
12 'x, y, z'
loop_
_atom_type_symbol
_atom_type_oxidation_number
Ga3+ 3
Te4+ 4
O2- -2
loop_
_atom_site_label
_atom_site_type_symbol
_atom_site_symmetry_multiplicity
_atom_site_Wyckoff_symbol
_atom_site_fract_x
_atom_site_fract_y
_atom_site_fract_z
_atom_site_U_iso_or_equiv
_atom_site_occupancy
Ga1 Ga3+ 4 f 1.3333 0.6667 0.0649(4) 0.0220(7) 1
Te1 Te4+ 6 h 0.96039(14) 0.45661(14) 0.25 0.0108(5) 1
O1 O2- 6 h 1.1655(15) 0.6624(15) 0.25 0.012(2) 1
O2 O2- 12 i 0.8558(11) 0.5120(11) 0.0672(13) 0.0159(19) 1
loop_
_atom_site_aniso_label
_atom_site_aniso_type_symbol
_atom_site_aniso_U_11
_atom_site_aniso_U_22
_atom_site_aniso_U_33
_atom_site_aniso_U_12
_atom_site_aniso_U_13
_atom_site_aniso_U_23
Ga1 Ga3+ 0.0222(9) 0.0222(9) 0.0216(14) 0.0111(4) 0. 0.
Te1 Te4+ 0.0084(6) 0.0109(6) 0.0122(6) 0.0042(5) 0. 0.
O1 O2- 0.006(5) 0.010(6) 0.014(6) -0.001(5) 0. 0.
O2 O2- 0.018(4) 0.016(4) 0.016(4) 0.010(4) -0.010(4) -0.006(4)
#End of TTdata_261175-ICSD
#
