(C) 2022 by FIZ Karlsruhe - Leibniz Institute for Information Infrastructure.  All rights reserved.
data_261952-ICSD
_database_code_ICSD 261952
_audit_creation_date 2012-02-01
_chemical_name_common 'Cesium germanium uranium(IV) oxide (4/8/1/20)'
_chemical_formula_structural 'Cs4 Ge8 U O20'
_chemical_formula_sum 'Cs4 Ge8 O20 U1'
_exptl_crystal_density_diffrn 4.93
_diffrn_ambient_temperature 296.
_citation_title

;
Cs4 U Ge8 O20: a tetravalent uranium germanate containing four- and
five-coordinate germanium
;
loop_
_citation_id
_citation_journal_full
_citation_year
_citation_journal_volume
_citation_page_first
_citation_page_last
_citation_journal_id_ASTM
primary 'Inorganic Chemistry' 2011 50 9936 9938 INOCAJ
loop_
_citation_author_citation_id
_citation_author_name
primary 'Nguyen Quang Bac'
primary 'Lii Kwanghwa'
_cell_length_a 7.4320(4)
_cell_length_b 12.3777(6)
_cell_length_c 12.2351(6)
_cell_angle_alpha 90.
_cell_angle_beta 90.134(2)
_cell_angle_gamma 90.
_cell_volume 1125.52
_cell_formula_units_Z 2
_space_group_name_H-M_alt 'P 1 21/n 1'
_space_group_IT_number 14
loop_
_space_group_symop_id
_space_group_symop_operation_xyz
1 '-x+1/2, y+1/2, -z+1/2'
2 '-x, -y, -z'
3 'x+1/2, -y+1/2, z+1/2'
4 'x, y, z'
loop_
_atom_type_symbol
_atom_type_oxidation_number
Cs1+ 1
U4+ 4
Ge4+ 4
O2- -2
loop_
_atom_site_label
_atom_site_type_symbol
_atom_site_symmetry_multiplicity
_atom_site_Wyckoff_symbol
_atom_site_fract_x
_atom_site_fract_y
_atom_site_fract_z
_atom_site_U_iso_or_equiv
_atom_site_occupancy
Cs1 Cs1+ 4 e 0.00045(4) -0.07620(2) 0.33366(2) 0.03099(8) 1
Cs2 Cs1+ 4 e -0.48707(3) -0.05936(2) -0.177928(18) 0.02001(7) 1
U1 U4+ 2 a 0. 0. 0. 0.00617(6) 1
Ge1 Ge4+ 4 e 0.03354(5) -0.39154(3) -0.00279(2) 0.00652(8) 1
Ge2 Ge4+ 4 e 0.28257(5) 0.23548(3) -0.07331(3) 0.00695(8) 1
Ge3 Ge4+ 4 e 0.30374(5) -0.22945(3) 0.10069(3) 0.00674(8) 1
Ge4 Ge4+ 4 e 0.05444(5) -0.22316(3) -0.19578(3) 0.00724(8) 1
O1 O2- 4 e 0.1618(3) -0.3003(2) -0.09753(19) 0.0109(5) 1
O2 O2- 4 e 0.1641(3) 0.3111(2) 0.02161(19) 0.0134(5) 1
O3 O2- 4 e 0.1749(4) -0.3474(2) 0.10918(19) 0.0154(5) 1
O4 O2- 4 e 0.0802(4) -0.50559(18) -0.0862(2) 0.0121(5) 1
O5 O2- 4 e 0.2245(4) -0.2048(2) -0.2967(2) 0.0187(6) 1
O6 O2- 4 e 0.5035(4) 0.2504(3) -0.0212(2) 0.0182(6) 1
O7 O2- 4 e 0.2218(4) 0.1022(2) -0.0757(2) 0.0230(6) 1
O8 O2- 4 e -0.1188(3) -0.2938(2) -0.26363(19) 0.0118(5) 1
O9 O2- 4 e 0.2012(4) -0.1102(2) 0.0700(2) 0.0225(6) 1
O10 O2- 4 e -0.0119(4) -0.0958(2) -0.15494(19) 0.0162(5) 1
loop_
_atom_site_aniso_label
_atom_site_aniso_type_symbol
_atom_site_aniso_U_11
_atom_site_aniso_U_22
_atom_site_aniso_U_33
_atom_site_aniso_U_12
_atom_site_aniso_U_13
_atom_site_aniso_U_23
Cs1 Cs1+ 0.03224(16) 0.03461(16) 0.02613(14) -0.00541(12) 0.00091(11)
0.01626(11)
Cs2 Cs1+ 0.02313(13) 0.02093(13) 0.01596(11) -0.00233(9) -0.00160(9) -0.00318(8)
U1 U4+ 0.00740(10) 0.00517(9) 0.00593(9) 0.00064(5) -0.00062(6) 0.00007(5)
Ge1 Ge4+ 0.00769(16) 0.00538(16) 0.00650(15) -0.00068(12) -0.00005(11)
-0.00053(11)
Ge2 Ge4+ 0.00606(17) 0.00800(16) 0.00681(15) 0.00032(11) 0.00105(12) 0.00007(11)
Ge3 Ge4+ 0.00567(17) 0.00654(16) 0.00800(15) 0.00049(11) -0.00067(12)
0.00024(11)
Ge4 Ge4+ 0.01044(17) 0.00607(15) 0.00520(15) -0.00089(12) -0.00019(12)
-0.00035(11)
O1 O2- 0.0090(11) 0.0127(12) 0.0110(11) -0.0028(9) -0.0013(9) 0.0060(9)
O2 O2- 0.0117(12) 0.0197(13) 0.0088(11) 0.0071(10) 0.0015(9) -0.0007(9)
O3 O2- 0.0200(13) 0.0151(12) 0.0112(11) -0.0090(10) -0.0050(10) 0.0034(9)
O4 O2- 0.0180(13) 0.0075(11) 0.0108(11) -0.0028(9) 0.0081(10) -0.0031(8)
O5 O2- 0.0193(14) 0.0279(15) 0.0090(11) -0.0136(11) 0.0032(10) -0.0052(10)
O6 O2- 0.0092(13) 0.0362(17) 0.0092(11) -0.0010(10) -0.0010(9) -0.0038(11)
O7 O2- 0.0257(15) 0.0130(13) 0.0303(15) -0.0078(11) 0.0148(12) -0.0045(11)
O8 O2- 0.0125(12) 0.0140(12) 0.0090(11) -0.0044(9) -0.0031(9) 0.0016(9)
O9 O2- 0.0281(15) 0.0149(13) 0.0246(14) 0.0135(11) -0.0155(12) -0.0058(10)
O10 O2- 0.0313(15) 0.0069(11) 0.0105(11) 0.0039(10) -0.0025(10) -0.0033(9)
#End of TTdata_261952-ICSD
#
