(C) 2022 by FIZ Karlsruhe - Leibniz Institute for Information Infrastructure.  All rights reserved.
data_249731-ICSD
_database_code_ICSD 249731
_audit_creation_date 2009-02-01
_chemical_name_common
'Nonopotassium difluoride dotriacontaoxo-dodecasilico-trisamarate(III)'
_chemical_formula_structural '(K9 F2) (Sm3 Si12 O32)'
_chemical_formula_sum 'F2 K9 O32 Si12 Sm3'
_chemical_name_structure_type K9Y3Si12O32F2#K7(Sm3Si12O32)(H2O)3
_exptl_crystal_density_diffrn 3.14
_diffrn_ambient_temperature 294.
_citation_title

;
Flux synthesis, crystal structures, and luminescence properties of
salt-inclusion lanthanide silicates: [K9 F2][Ln3 Si12 O32] (Ln = Sm, Eu, Gd)
;
loop_
_citation_id
_citation_journal_full
_citation_year
_citation_journal_volume
_citation_page_first
_citation_page_last
_citation_journal_id_ASTM
primary 'Inorganic Chemistry' 2008 47 8985 8989 INOCAJ
loop_
_citation_author_citation_id
_citation_author_name
primary 'Tang Mingfeng'
primary 'Chiang Peiyun'
primary 'Su Yuhan'
primary 'Jung Yuchi'
primary 'Hou Guangyi'
primary 'Chang Borchen'
primary 'Lii Kwanghwa'
_cell_length_a 6.9152(6)
_cell_length_b 11.3996(10)
_cell_length_c 11.5308(10)
_cell_angle_alpha 87.6100(10)
_cell_angle_beta 89.4450(10)
_cell_angle_gamma 80.0810(10)
_cell_volume 894.61
_cell_formula_units_Z 1
_space_group_name_H-M_alt 'P -1'
_space_group_IT_number 2
loop_
_space_group_symop_id
_space_group_symop_operation_xyz
1 '-x, -y, -z'
2 'x, y, z'
loop_
_atom_type_symbol
_atom_type_oxidation_number
K1+ 1
F1- -1
Sm3+ 3
Si4+ 4
O2- -2
loop_
_atom_site_label
_atom_site_type_symbol
_atom_site_symmetry_multiplicity
_atom_site_Wyckoff_symbol
_atom_site_fract_x
_atom_site_fract_y
_atom_site_fract_z
_atom_site_U_iso_or_equiv
_atom_site_occupancy
K1 K1+ 2 i 0.26296(15) -0.38498(9) 0.01657(9) 0.0282(2) 1
K2 K1+ 2 i 0.16920(14) -0.19165(8) -0.22072(8) 0.02251(18) 1
K3 K1+ 2 i 0.16877(16) -0.15397(11) 0.21334(9) 0.0358(2) 1
K4 K1+ 1 d 0.5 0. 0. 0.0447(4) 1
K5 K1+ 2 i 0.01786(13) 0.33051(7) 0.51085(7) 0.01921(17) 1
F1 F1- 2 i 0.2456(4) -0.1563(2) -0.0043(2) 0.0345(6) 1
Sm1 Sm3+ 1 b 0. 0. 0.5 0.00939(6) 1
Sm2 Sm3+ 2 i 0.48577(3) 0.485132(15) 0.334431(15) 0.00945(5) 1
Si1 Si4+ 2 i 0.55192(14) 0.23297(8) 0.51113(8) 0.00897(18) 1
Si2 Si4+ 2 i 0.33861(14) 0.13880(8) 0.31059(8) 0.00928(18) 1
Si3 Si4+ 2 i 0.65709(14) -0.09019(8) 0.30372(8) 0.00920(18) 1
Si4 Si4+ 2 i 0.68831(14) -0.30369(8) 0.15870(8) 0.00993(18) 1
Si5 Si4+ 2 i -0.01752(14) -0.51518(8) 0.25610(8) 0.01036(19) 1
Si6 Si4+ 2 i 0.28449(15) -0.66733(8) 0.11671(8) 0.01041(19) 1
O1 O2- 2 i 0.5253(4) 0.3758(2) 0.5181(2) 0.0134(5) 1
O2 O2- 2 i 0.4879(4) 0.2129(2) 0.3750(2) 0.0144(5) 1
O3 O2- 2 i 0.3859(4) 0.1831(2) 0.5928(2) 0.0142(5) 1
O4 O2- 2 i 0.7666(4) 0.1648(2) 0.5400(2) 0.0154(5) 1
O5 O2- 2 i 0.1460(4) 0.1287(2) 0.3810(2) 0.0155(5) 1
O6 O2- 2 i 0.2844(4) 0.2041(2) 0.1832(2) 0.0173(6) 1
O7 O2- 2 i 0.4610(4) 0.0087(2) 0.2769(2) 0.0175(6) 1
O8 O2- 2 i 0.6869(4) -0.1634(2) 0.1843(2) 0.0142(5) 1
O9 O2- 2 i 0.8453(4) -0.0346(2) 0.3298(2) 0.0147(5) 1
O10 O2- 2 i 0.8957(4) -0.3760(2) 0.2127(2) 0.0186(6) 1
O11 O2- 2 i 0.7084(4) -0.3092(2) 0.0200(2) 0.0196(6) 1
O12 O2- 2 i 0.4999(4) -0.3508(2) 0.2088(2) 0.0148(5) 1
O13 O2- 2 i 0.1557(4) -0.5106(2) 0.3454(2) 0.0152(5) 1
O14 O2- 2 i -0.1876(4) -0.5798(2) 0.3093(2) 0.0162(5) 1
O15 O2- 2 i 0.0697(4) -0.5840(2) 0.1373(2) 0.0186(6) 1
O16 O2- 2 i 0.4585(4) -0.6040(2) 0.1556(2) 0.0165(5) 1
loop_
_atom_site_aniso_label
_atom_site_aniso_type_symbol
_atom_site_aniso_U_11
_atom_site_aniso_U_22
_atom_site_aniso_U_33
_atom_site_aniso_U_12
_atom_site_aniso_U_13
_atom_site_aniso_U_23
K1 K1+ 0.0315(5) 0.0268(5) 0.0266(5) -0.0072(4) -0.0015(4) 0.0031(4)
K2 K1+ 0.0256(5) 0.0207(4) 0.0213(4) -0.0047(3) -0.0016(4) 0.0016(3)
K3 K1+ 0.0306(6) 0.0503(6) 0.0233(5) 0.0029(5) 0.0043(4) -0.0073(4)
K4 K1+ 0.0563(11) 0.0477(10) 0.0352(9) -0.0259(8) -0.0157(8) 0.0150(7)
K5 K1+ 0.0235(4) 0.0155(4) 0.0182(4) -0.0022(3) 0.0015(3) -0.0011(3)
F1 F1- 0.0467(18) 0.0319(14) 0.0258(14) -0.0093(13) -0.0013(13) -0.0013(11)
Sm1 Sm3+ 0.00942(12) 0.00944(12) 0.00910(12) -0.00114(9) 0.00065(9) -0.00010(8)
Sm2 Sm3+ 0.00896(9) 0.01063(9) 0.00871(9) -0.00157(6) 0.00071(6) -0.00026(6)
Si1 Si4+ 0.0097(4) 0.0081(4) 0.0087(4) -0.0007(3) 0.0009(3) 0.0004(3)
Si2 Si4+ 0.0095(4) 0.0086(4) 0.0096(4) -0.0015(3) 0.0007(4) 0.0004(3)
Si3 Si4+ 0.0102(5) 0.0086(4) 0.0088(4) -0.0017(3) 0.0004(4) -0.0007(3)
Si4 Si4+ 0.0121(5) 0.0088(4) 0.0087(4) -0.0011(3) 0.0009(4) -0.0006(3)
Si5 Si4+ 0.0086(4) 0.0115(4) 0.0105(4) -0.0003(3) 0.0005(4) -0.0006(3)
Si6 Si4+ 0.0133(5) 0.0095(4) 0.0084(4) -0.0021(3) 0.0017(4) -0.0005(3)
O1 O2- 0.0228(14) 0.0068(11) 0.0103(12) -0.0016(10) 0.0002(10) 0.0014(9)
O2 O2- 0.0167(13) 0.0192(13) 0.0092(12) -0.0081(10) 0.0003(10) -0.0021(10)
O3 O2- 0.0146(13) 0.0160(12) 0.0125(12) -0.0043(10) 0.0010(10) 0.0023(10)
O4 O2- 0.0120(13) 0.0150(12) 0.0177(13) 0.0016(10) 0.0007(10) -0.0005(10)
O5 O2- 0.0147(13) 0.0155(12) 0.0169(13) -0.0052(10) 0.0039(11) 0.0012(10)
O6 O2- 0.0263(15) 0.0146(13) 0.0123(13) -0.0077(11) -0.0051(11) 0.0046(10)
O7 O2- 0.0165(14) 0.0121(12) 0.0216(14) 0.0047(10) -0.0023(11) -0.0026(10)
O8 O2- 0.0211(14) 0.0094(11) 0.0119(12) -0.0016(10) 0.0035(10) -0.0023(9)
O9 O2- 0.0133(13) 0.0173(13) 0.0153(13) -0.0073(10) 0.0001(10) -0.0011(10)
O10 O2- 0.0153(14) 0.0150(13) 0.0246(15) -0.0013(10) -0.0019(11) 0.0031(11)
O11 O2- 0.0293(16) 0.0205(14) 0.0098(13) -0.0058(12) 0.0034(11) -0.0039(10)
O12 O2- 0.0135(13) 0.0142(12) 0.0169(13) -0.0036(10) 0.0016(10) 0.0020(10)
O13 O2- 0.0115(13) 0.0218(13) 0.0121(12) -0.0024(10) 0.0007(10) -0.0015(10)
O14 O2- 0.0099(12) 0.0155(13) 0.0230(14) -0.0023(10) 0.0009(11) 0.0023(10)
O15 O2- 0.0168(14) 0.0249(14) 0.0128(13) 0.0016(11) -0.0001(11) -0.0068(11)
O16 O2- 0.0176(14) 0.0187(13) 0.0150(13) -0.0077(11) 0.0042(11) -0.0051(10)
#End of TTdata_249731-ICSD
#
