(C) 2022 by FIZ Karlsruhe - Leibniz Institute for Information Infrastructure.  All rights reserved.
data_80613-ICSD
_database_code_ICSD 80613
_audit_creation_date 1997-05-13
_audit_update_record 2011-02-01
_chemical_name_common 'Lithium oxovanadium(IV) phosphate(V) - beta'
_chemical_formula_structural 'Li (V O) (P O4)'
_chemical_formula_sum 'Li1 O5 P1 V1'
_chemical_name_structure_type β−LiVOPO4
_exptl_crystal_density_diffrn 3.33
_citation_title

;
Hydrothermal synthesis, structure and magnetic properties of a new polymorph
of lithium vanadyl(IV) orthophosphate : beta Li V O P O4
;
loop_
_citation_id
_citation_journal_full
_citation_year
_citation_journal_volume
_citation_page_first
_citation_page_last
_citation_journal_id_ASTM
primary 'Journal of Solid State Chemistry' 1991 95 352 359 JSSCBI
loop_
_citation_author_citation_id
_citation_author_name
primary 'Lii, K.-H.'
primary 'Li, C.-H.'
primary 'Cheng, C.-Y.'
primary 'Wang, S.-L.'
_cell_length_a 7.444(2)
_cell_length_b 6.300(1)
_cell_length_c 7.174(2)
_cell_angle_alpha 90.
_cell_angle_beta 90.
_cell_angle_gamma 90.
_cell_volume 336.44
_cell_formula_units_Z 4
_space_group_name_H-M_alt 'P n m a'
_space_group_IT_number 62
loop_
_space_group_symop_id
_space_group_symop_operation_xyz
1 'x+1/2, y, -z+1/2'
2 'x, -y+1/2, z'
3 '-x+1/2, y+1/2, z+1/2'
4 '-x, -y, -z'
5 '-x+1/2, -y, z+1/2'
6 '-x, y+1/2, -z'
7 'x+1/2, -y+1/2, -z+1/2'
8 'x, y, z'
loop_
_atom_type_symbol
_atom_type_oxidation_number
Li1+ 1
V4+ 4
P5+ 5
O2- -2
loop_
_atom_site_label
_atom_site_type_symbol
_atom_site_symmetry_multiplicity
_atom_site_Wyckoff_symbol
_atom_site_fract_x
_atom_site_fract_y
_atom_site_fract_z
_atom_site_B_iso_or_equiv
_atom_site_occupancy
Li1 Li1+ 4 b 0.5 0 0 . 1.
V1 V4+ 4 c 0.32631(9) 0.25 0.72035(9) . 1.
P1 P5+ 4 c 0.6249(1) 0.25 0.3740(1) . 1.
O1 O2- 4 c 0.4553(3) 0.25 0.4902(4) . 1.
O2 O2- 8 d 0.3720(3) -.0556(3) 0.7548(2) . 1.
O3 O2- 4 c 0.2948(4) 0.25 0.9999(4) . 1.
O4 O2- 4 c 0.1170(4) 0.25 0.6548(4) . 1.
loop_
_atom_site_aniso_label
_atom_site_aniso_type_symbol
_atom_site_aniso_U_11
_atom_site_aniso_U_22
_atom_site_aniso_U_33
_atom_site_aniso_U_12
_atom_site_aniso_U_13
_atom_site_aniso_U_23
Li1 Li1+ 0.022(3) 0.009(3) 0.011(3) -.004(3) -.003(3) 0.003(3)
V1 V4+ 0.0058(5) 0.0048(5) 0.0044(6) 0 0.0002(2) 0
P1 P5+ 0.0057(6) 0.0042(6) 0.0034(6) 0 -.0007(3) 0
O1 O2- 0.005(2) 0.015(2) 0.007(1) 0 0.003(1) 0
O2 O2- 0.0106(9) 0.004(1) 0.0041(9) 0.000(1) -.0023(6) -.0007(7)
O3 O2- 0.004(1) 0.011(1) 0.008(1) 0 0.001(1) 0
O4 O2- 0.009(1) 0.010(2) 0.008(1) 0 -.001(1) 0
#End of TTdata_80613-ICSD
#
