(C) 2022 by FIZ Karlsruhe - Leibniz Institute for Information Infrastructure.  All rights reserved.
data_261177-ICSD
_database_code_ICSD 261177
_audit_creation_date 2011-02-01
_audit_update_record 2013-02-01
_chemical_name_common 'Lithium gallium (tellurite(IV)) hydrate (6/8.67/14/2)'
_chemical_formula_structural 'Li6 Ga8.67 (Te O3)14 (H2 O)2'
_chemical_formula_sum 'H4 Ga8.67 Li6 O44 Te14'
_exptl_crystal_density_diffrn 5.25
_diffrn_ambient_temperature 293.
_citation_title

;
A series of new ternary and quaternary compounds in the Li(I)-Ga(III)-Te(IV)-O
System
;
loop_
_citation_id
_citation_journal_full
_citation_year
_citation_journal_volume
_citation_page_first
_citation_page_last
_citation_journal_id_ASTM
primary 'Inorganic Chemistry' 2010 49 11573 11580 INOCAJ
loop_
_citation_author_citation_id
_citation_author_name
primary 'Kong Fang'
primary 'Xu Xiang'
primary 'Mao Jiang Gao'
_cell_length_a 11.3343(4)
_cell_length_b 11.3343(4)
_cell_length_c 26.7992(15)
_cell_angle_alpha 90.
_cell_angle_beta 90.
_cell_angle_gamma 120.
_cell_volume 2981.55
_cell_formula_units_Z 3
_space_group_name_H-M_alt 'R -3 H'
_space_group_IT_number 148
loop_
_space_group_symop_id
_space_group_symop_operation_xyz
1 'x-y, x, -z'
2 'y, -x+y, -z'
3 '-x, -y, -z'
4 '-x+y, -x, z'
5 '-y, x-y, z'
6 'x, y, z'
7 'x-y+2/3, x+1/3, -z+1/3'
8 'y+2/3, -x+y+1/3, -z+1/3'
9 '-x+2/3, -y+1/3, -z+1/3'
10 '-x+y+2/3, -x+1/3, z+1/3'
11 '-y+2/3, x-y+1/3, z+1/3'
12 'x+2/3, y+1/3, z+1/3'
13 'x-y+1/3, x+2/3, -z+2/3'
14 'y+1/3, -x+y+2/3, -z+2/3'
15 '-x+1/3, -y+2/3, -z+2/3'
16 '-x+y+1/3, -x+2/3, z+2/3'
17 '-y+1/3, x-y+2/3, z+2/3'
18 'x+1/3, y+2/3, z+2/3'
loop_
_atom_type_symbol
_atom_type_oxidation_number
Li1+ 1
Ga3+ 3
Te4+ 3.7
O2- -2
H1+ 1
loop_
_atom_site_label
_atom_site_type_symbol
_atom_site_symmetry_multiplicity
_atom_site_Wyckoff_symbol
_atom_site_fract_x
_atom_site_fract_y
_atom_site_fract_z
_atom_site_U_iso_or_equiv
_atom_site_occupancy
Li1 Li1+ 18 f -0.2071(12) 0.5647(12) 0.0685(4) 0.013(2) 1
Ga1 Ga3+ 9 e 0.5 0.5 0. 0.0039(2) 1
Ga2 Ga3+ 18 f -0.05582(8) 0.13462(8) 0.14552(3) 0.00742(17) 0.94
Te1 Te4+ 6 c 0.6667 0.3333 -0.02686(2) 0.00468(16) 1
Te2 Te4+ 18 f 0.17516(4) 0.26596(4) 0.054494(14) 0.00574(12) 1
Te3 Te4+ 18 f -0.00072(4) 0.45546(4) 0.119508(14) 0.00506(12) 1
O1 O2- 18 f 0.5238(5) 0.3364(4) 0.00705(16) 0.0078(9) 1
O2 O2- 18 f 0.3483(5) 0.4259(5) 0.05252(17) 0.0101(9) 1
O3 O2- 18 f 0.2295(5) 0.1427(4) 0.07541(17) 0.0101(9) 1
O4 O2- 18 f 0.1200(5) 0.2951(5) 0.11646(16) 0.0090(9) 1
O5 O2- 6 c 0. 0. 0.1391(3) 0.0066(15) 1
O6 O2- 18 f -0.1059(4) 0.2826(4) 0.14926(16) 0.0075(9) 1
O7 O2- 18 f -0.0394(4) 0.3776(4) 0.05502(16) 0.0068(9) 1
O8 O2- 18 f -0.1425(5) 0.4912(5) 0.12192(16) 0.0090(9) 1
loop_
_atom_site_aniso_label
_atom_site_aniso_type_symbol
_atom_site_aniso_U_11
_atom_site_aniso_U_22
_atom_site_aniso_U_33
_atom_site_aniso_U_12
_atom_site_aniso_U_13
_atom_site_aniso_U_23
Li1 Li1+ 0.010(5) 0.017(6) 0.012(6) 0.007(5) 0.001(4) -0.002(5)
Ga1 Ga3+ 0.0055(4) 0.0058(4) 0.0010(4) 0.0029(4) -0.0010(3) -0.0002(3)
Ga2 Ga3+ 0.0093(4) 0.0102(4) 0.0037(3) 0.0055(3) 0.0006(3) -0.0001(3)
Te1 Te4+ 0.0064(2) 0.0064(2) 0.0011(3) 0.00322(11) 0. 0.
Te2 Te4+ 0.0062(2) 0.0091(2) 0.0021(2) 0.00391(17) 0.00059(14) 0.00113(14)
Te3 Te4+ 0.0064(2) 0.0054(2) 0.0018(2) 0.00175(16) 0.00047(13) 0.00006(14)
O1 O2- 0.010(2) 0.008(2) 0.008(2) 0.0067(19) 0.0061(17) 0.0036(17)
O2 O2- 0.008(2) 0.012(2) 0.007(2) 0.0026(19) 0.0040(17) 0.0036(17)
O3 O2- 0.013(2) 0.008(2) 0.013(2) 0.0078(19) 0.0016(19) 0.0027(18)
O4 O2- 0.010(2) 0.013(2) 0.007(2) 0.0082(19) 0.0037(17) 0.0013(18)
O5 O2- 0.004(2) 0.004(2) 0.011(4) 0.0022(11) 0. 0.
O6 O2- 0.010(2) 0.006(2) 0.007(2) 0.0044(18) 0.0070(17) 0.0038(17)
O7 O2- 0.010(2) 0.006(2) 0.003(2) 0.0034(18) 0.0013(16) 0.0003(16)
O8 O2- 0.011(2) 0.014(2) 0.007(2) 0.010(2) 0.0036(17) 0.0040(18)
#End of TTdata_261177-ICSD
#
