(C) 2022 by FIZ Karlsruhe - Leibniz Institute for Information Infrastructure.  All rights reserved.
data_417724-ICSD
_database_code_ICSD 417724
_audit_creation_date 2008-08-01
_audit_update_record 2021-02-01
_chemical_name_common
'Calcium decakis(monooxomolybdate(V)) octakis(diphosphate)'
_chemical_formula_structural 'Ca0.5 (Mo O)5 (P2 O7)4'
_chemical_formula_sum 'Ca0.5 Mo5 O33 P8'
_chemical_name_structure_type Li(MoO)5(P2O7)4
_exptl_crystal_density_diffrn 3.32
_diffrn_ambient_temperature 293.
_citation_title

;
A large series of isotypic Mo(V) diphosphates with a tunnel structure from A
(Mo O)10 (P2 O7)8 with A = Ba, Sr, Ca, Cd, Pb, to A (Mo O)5 (P2 O7)4 with A =
Ag, Li, Na, K
;
loop_
_citation_id
_citation_journal_full
_citation_year
_citation_journal_volume
_citation_page_first
_citation_page_last
_citation_journal_id_ASTM
primary 'Journal of Solid State Chemistry' 2007 180 2044 2052 JSSCBI
loop_
_citation_author_citation_id
_citation_author_name
primary 'Leclaire, A.'
primary 'Caignaert, V.'
primary 'Raveau, B.'
_cell_length_a 32.4246
_cell_length_b 4.8404
_cell_length_c 22.9466
_cell_angle_alpha 90.0000(5)
_cell_angle_beta 134.9210(5)
_cell_angle_gamma 90.0000(4)
_cell_volume 2550.1
_cell_formula_units_Z 4
_space_group_name_H-M_alt 'C 1 2/c 1'
_space_group_IT_number 15
loop_
_space_group_symop_id
_space_group_symop_operation_xyz
1 'x, -y, z+1/2'
2 '-x, -y, -z'
3 '-x, y, -z+1/2'
4 'x, y, z'
5 'x+1/2, -y+1/2, z+1/2'
6 '-x+1/2, -y+1/2, -z'
7 '-x+1/2, y+1/2, -z+1/2'
8 'x+1/2, y+1/2, z'
loop_
_atom_type_symbol
_atom_type_oxidation_number
Mo5+ 5
P5+ 5
Ca2+ 2
O2- -2
loop_
_atom_site_label
_atom_site_type_symbol
_atom_site_symmetry_multiplicity
_atom_site_Wyckoff_symbol
_atom_site_fract_x
_atom_site_fract_y
_atom_site_fract_z
_atom_site_U_iso_or_equiv
_atom_site_occupancy
Mo1 Mo5+ 8 f 0.092616(15) 0.85523(6) 0.03849(2) 0.01068(19) 1
Mo2 Mo5+ 8 f 0.195898(14) 0.10552(6) 0.353168(19) 0.01084(18) 1
Mo3 Mo5+ 4 e 0 0.74136(15) 0.25 0.0099(3) 0.5490(8)
Mo4 Mo5+ 4 e 0 0.50863(19) 0.25 0.0099(3) 0.4509(8)
P1 P5+ 8 f 0.09877(4) 0.60262(18) 0.24689(6) 0.0085(5) 1
P2 P5+ 8 f 0.12681(4) 0.35778(19) 0.16486(6) 0.0113(6) 1
P3 P5+ 8 f 0.10186(4) 0.35295(18) -0.04948(5) 0.0092(5) 1
P4 P5+ 8 f 0.21204(4) 0.10857(19) 0.08903(6) 0.0117(5) 1
Ca1 Ca2+ 8 f 0.7548(3) 0.0980(19) 0.7440(4) 0.023(3) 0.125
Ca2 Ca2+ 8 f 0.7383(3) -0.135(2) 0.7329(4) 0.023(3) 0.125
O1 O2- 8 f 0.02699(16) 0.7275(6) -0.0154(2) 0.027(3) 1
O2 O2- 8 f 0.09222(13) 1.1252(6) 0.10399(18) 0.0201(19) 1
O3 O2- 8 f 0.13993(15) 0.5891(6) 0.1349(2) 0.024(2) 1
O4 O2- 8 f 0.11117(13) 0.6424(6) -0.01599(19) 0.020(2) 1
O5 O2- 8 f 0.07063(13) 1.1672(6) -0.03899(18) 0.0181(18) 1
O6 O2- 8 f 0.18258(14) 1.0194(5) 0.1147(2) 0.017(2) 1
O7 O2- 8 f 0.20757(17) -0.0225(6) 0.4296(2) 0.027(2) 1
O8 O2- 8 f 0.26166(13) 0.3777(7) 0.41911(18) 0.0211(19) 1
O9 O2- 8 f 0.12316(13) -0.1082(6) 0.26176(18) 0.0204(19) 1
O10 O2- 8 f 0.14037(14) 0.4139(6) 0.31969(18) 0.0185(19) 1
O11 O2- 8 f 0.24519(14) -0.1601(6) 0.35565(19) 0.0260(19) 1
O12 O2- 8 f 0.18193(14) 0.2691(5) 0.24971(19) 0.0152(18) 1
O13 O2- 4 e 0 1.0860(3) 0.25 0.0328(14) 0.5490(8)
O14 O2- 4 e 0 0.1641(3) 0.25 0.0328(14) 0.4509(8)
O15 O2- 8 f 0.03940(12) 0.6148(7) 0.21680(17) 0.0174(16) 1
O16 O2- 8 f 0.07243(12) 0.6359(6) 0.36184(16) 0.0151(16) 1
O17 O2- 8 f 0.08360(14) 0.4819(5) 0.1696(2) 0.0156(19) 1
O18 O2- 8 f 0.16396(13) 0.2314(5) -0.00233(18) 0.0137(17) 1
loop_
_atom_site_aniso_label
_atom_site_aniso_type_symbol
_atom_site_aniso_U_11
_atom_site_aniso_U_22
_atom_site_aniso_U_33
_atom_site_aniso_U_12
_atom_site_aniso_U_13
_atom_site_aniso_U_23
Mo1 Mo5+ 0.01552(16) 0.00753(11) 0.01460(15) -0.00033(12) 0.01262(13)
-0.00025(12)
Mo2 Mo5+ 0.00858(14) 0.00755(11) 0.01153(14) -0.00034(11) 0.00537(12)
0.00021(11)
Mo3 Mo5+ 0.0081(3) 0.0145(2) 0.0076(2) 0 0.0057(2) 0
Mo4 Mo5+ 0.0081(3) 0.0145(2) 0.0076(2) 0 0.0057(2) 0
P1 P5+ 0.0077(4) 0.0085(3) 0.0098(4) -0.0005(3) 0.0064(3) -0.0012(3)
P2 P5+ 0.0158(5) 0.0101(3) 0.0132(4) 0.0029(4) 0.0121(4) 0.0027(3)
P3 P5+ 0.0083(4) 0.0088(3) 0.0086(4) 0.0008(3) 0.0053(3) 0.0003(3)
P4 P5+ 0.0077(4) 0.0107(3) 0.0121(4) -0.0008(3) 0.0053(4) 0.0020(3)
Ca1 Ca2+ 0.011(2) 0.047(2) 0.012(2) 0.012(3) 0.0084(18) 0.006(2)
Ca2 Ca2+ 0.011(2) 0.047(2) 0.012(2) 0.012(3) 0.0084(18) 0.006(2)
O1 O2- 0.0207(19) 0.0258(14) 0.040(2) -0.0055(12) 0.0237(18) -0.0069(13)
O2 O2- 0.0190(15) 0.0223(12) 0.0210(14) 0.0038(13) 0.0148(13) -0.0024(13)
O3 O2- 0.0287(18) 0.0207(13) 0.0347(18) 0.0061(13) 0.0268(16) 0.0145(13)
O4 O2- 0.0232(16) 0.0142(11) 0.0293(15) -0.0014(12) 0.0212(14) -0.0079(12)
O5 O2- 0.0130(14) 0.0187(12) 0.0193(14) -0.0014(11) 0.0102(12) 0.0027(11)
O6 O2- 0.0130(15) 0.0229(12) 0.0171(15) -0.0065(11) 0.0117(14) -0.0035(10)
O7 O2- 0.032(2) 0.0262(14) 0.0147(17) -0.0060(13) 0.0140(17) -0.0013(11)
O8 O2- 0.0186(15) 0.0241(13) 0.0214(14) -0.0128(13) 0.0144(13) -0.0107(13)
O9 O2- 0.0241(16) 0.0132(11) 0.0174(14) -0.0064(12) 0.0124(13) -0.0012(11)
O10 O2- 0.0247(16) 0.0186(12) 0.0176(14) 0.0081(12) 0.0168(13) 0.0051(11)
O11 O2- 0.0180(16) 0.0219(13) 0.0185(14) 0.0149(13) 0.0059(13) 0.0037(12)
O12 O2- 0.0129(15) 0.0216(12) 0.0138(13) 0.0028(10) 0.0104(12) 0.0063(10)
O15 O2- 0.0101(13) 0.0293(13) 0.0141(12) 0.0035(13) 0.0090(11) 0.0002(13)
O16 O2- 0.0095(12) 0.0255(12) 0.0101(11) -0.0029(12) 0.0069(11) -0.0038(12)
O17 O2- 0.0133(15) 0.0197(11) 0.0161(15) 0.0013(10) 0.0113(13) -0.0038(10)
O18 O2- 0.0103(14) 0.0200(11) 0.0124(13) 0.0056(10) 0.0086(12) 0.0056(9)
#End of TTdata_417724-ICSD
#
