(C) 2022 by FIZ Karlsruhe - Leibniz Institute for Information Infrastructure.  All rights reserved.
data_251035-ICSD
_database_code_ICSD 251035
_audit_creation_date 2015-02-01
_chemical_name_common
'Tetrasodium dioxouranate(VI) dieuropium bis(digermanate(IV))'
_chemical_formula_structural 'K4 ((U O2) Eu2 (Ge2 O7)2)'
_chemical_formula_sum 'Eu2 Ge4 K4 O16 U1'
_chemical_name_structure_type K4(UO2)Eu2(Ge2O7)2
_exptl_crystal_density_diffrn 4.71
_diffrn_ambient_temperature 296.
_citation_title

;
Flux synthesis, crystal structure, and photoluminescence of a heterometallic
uranyl-europium germanate with U:O-Eu linkage: K4[(UO2)Eu2(Ge2O7)2]
;
loop_
_citation_id
_citation_journal_full
_citation_year
_citation_journal_volume
_citation_page_first
_citation_page_last
_citation_journal_id_ASTM
primary 'Inorganic Chemistry' 2013 52 3990 3994 INOCAJ
loop_
_citation_author_citation_id
_citation_author_name
primary 'Liu, Shih-Pu'
primary 'Chen, Meng-Ling'
primary 'Chang, Bor-Chen'
primary 'Lii, Kwang-Hwa'
_cell_length_a 6.9491(4)
_cell_length_b 6.9502(4)
_cell_length_c 9.9102(5)
_cell_angle_alpha 94.695(2)
_cell_angle_beta 98.659(2)
_cell_angle_gamma 110.512(2)
_cell_volume 438.47
_cell_formula_units_Z 1
_space_group_name_H-M_alt 'P -1'
_space_group_IT_number 2
loop_
_space_group_symop_id
_space_group_symop_operation_xyz
1 '-x, -y, -z'
2 'x, y, z'
loop_
_atom_type_symbol
_atom_type_oxidation_number
K1+ 1
U6+ 6
Eu3+ 3
Ge4+ 4
O2- -2
loop_
_atom_site_label
_atom_site_type_symbol
_atom_site_symmetry_multiplicity
_atom_site_Wyckoff_symbol
_atom_site_fract_x
_atom_site_fract_y
_atom_site_fract_z
_atom_site_U_iso_or_equiv
_atom_site_occupancy
K1 K1+ 2 i 0.04000(12) 0.75681(12) 0.60206(8) 0.01393(16) 1
K2 K1+ 2 i 0.16237(15) 0.80846(15) -0.04019(9) 0.0262(2) 1
U1 U6+ 1 e 0.5 0.5 0. 0.00694(6) 1
Eu1 Eu3+ 2 i 0.48001(2) 0.72809(2) 0.403701(16) 0.00652(5) 1
Ge1 Ge4+ 2 i 0.03491(5) 0.24084(5) -0.26310(3) 0.00716(8) 1
Ge2 Ge4+ 2 i 0.62402(5) 0.83080(5) 0.73611(3) 0.00649(8) 1
O1 O2- 2 i 0.1683(4) 0.3896(4) -0.1027(2) 0.0127(5) 1
O2 O2- 2 i 0.1906(4) 0.1862(4) -0.3680(2) 0.0124(5) 1
O3 O2- 2 i -0.1280(4) 0.3479(4) -0.3501(2) 0.0121(5) 1
O4 O2- 2 i -0.1093(4) -0.0006(4) -0.2076(3) 0.0125(5) 1
O5 O2- 2 i 0.6190(4) 0.6278(4) 0.6202(2) 0.0101(5) 1
O6 O2- 2 i 0.4750(4) 0.9327(4) 0.6289(2) 0.0113(5) 1
O7 O2- 2 i 0.5417(4) 0.7770(4) 0.8905(2) 0.0132(5) 1
O8 O2- 2 i 0.4305(4) 0.6394(4) 0.1408(2) 0.0125(5) 1
loop_
_atom_site_aniso_label
_atom_site_aniso_type_symbol
_atom_site_aniso_U_11
_atom_site_aniso_U_22
_atom_site_aniso_U_33
_atom_site_aniso_U_12
_atom_site_aniso_U_13
_atom_site_aniso_U_23
K1 K1+ 0.0132(3) 0.0140(4) 0.0139(4) 0.0039(3) 0.0038(3) 0.0011(3)
K2 K1+ 0.0324(5) 0.0350(5) 0.0178(4) 0.0201(4) 0.0063(4) 0.0018(4)
U1 U6+ 0.00751(9) 0.00765(9) 0.00454(9) 0.00169(7) 0.00077(6) 0.00046(6)
Eu1 Eu3+ 0.00677(8) 0.00613(9) 0.00671(9) 0.00261(6) 0.00096(6) 0.00073(6)
Ge1 Ge4+ 0.00596(15) 0.00830(17) 0.00654(16) 0.00218(13) 0.00063(13) 0.00027(13)
Ge2 Ge4+ 0.00788(16) 0.00598(16) 0.00516(16) 0.00213(13) 0.00092(12) 0.00085(12)
O1 O2- 0.0097(11) 0.0151(13) 0.0101(12) 0.0028(10) -0.0001(9) -0.0044(10)
O2 O2- 0.0098(11) 0.0193(13) 0.0092(12) 0.0066(10) 0.0035(9) -0.0010(10)
O3 O2- 0.0092(11) 0.0148(13) 0.0131(12) 0.0057(10) 0.0006(9) 0.0037(10)
O4 O2- 0.0096(11) 0.0110(12) 0.0148(12) 0.0011(10) 0.0014(10) 0.0035(10)
O5 O2- 0.0156(12) 0.0088(11) 0.0062(11) 0.0054(10) 0.0011(9) -0.0002(9)
O6 O2- 0.0134(11) 0.0089(11) 0.0111(12) 0.0046(9) -0.0004(10) 0.0017(9)
O7 O2- 0.0195(13) 0.0119(12) 0.0103(12) 0.0065(10) 0.0067(10) 0.0032(9)
O8 O2- 0.0131(12) 0.0172(13) 0.0076(11) 0.0064(10) 0.0022(9) 0.0011(10)
#End of TTdata_251035-ICSD
#
