(C) 2022 by FIZ Karlsruhe - Leibniz Institute for Information Infrastructure.  All rights reserved.
data_49919-ICSD
_database_code_ICSD 49919
_audit_creation_date 1988-05-18
_audit_update_record 1991-04-20
_chemical_name_common 'Cesium molybdodiphosphate'
_chemical_formula_structural 'Cs (Mo P2 O7)'
_chemical_formula_sum 'Cs1 Mo1 O7 P2'
_chemical_name_structure_type KAlP2O7
_exptl_crystal_density_diffrn 4.1
_diffrn_ambient_temperature 296.
_citation_title
'Cs Mo P2 O7: a molybdenophosphate containing isolated Mo(3+) cations'
loop_
_citation_id
_citation_journal_full
_citation_year
_citation_journal_volume
_citation_page_first
_citation_page_last
_citation_journal_id_ASTM
primary 'Acta Crystallographica, Section C: Crystal Structure Communications'
1987 43 2036 2038 ACSCEE
loop_
_citation_author_citation_id
_citation_author_name
primary 'Lii, K.-H.'
primary 'Haushalter, R.C.'
_cell_length_a 7.7239(22)
_cell_length_b 10.304(10)
_cell_length_c 8.4881(15)
_cell_angle_alpha 90.
_cell_angle_beta 104.772(17)
_cell_angle_gamma 90.
_cell_volume 653.21
_cell_formula_units_Z 4
_space_group_name_H-M_alt 'P 1 21/c 1'
_space_group_IT_number 14
loop_
_space_group_symop_id
_space_group_symop_operation_xyz
1 'x, -y+1/2, z+1/2'
2 '-x, -y, -z'
3 '-x, y+1/2, -z+1/2'
4 'x, y, z'
loop_
_atom_type_symbol
_atom_type_oxidation_number
Cs1+ 1
Mo3+ 3
P5+ 5
O2- -2
loop_
_atom_site_label
_atom_site_type_symbol
_atom_site_symmetry_multiplicity
_atom_site_Wyckoff_symbol
_atom_site_fract_x
_atom_site_fract_y
_atom_site_fract_z
_atom_site_B_iso_or_equiv
_atom_site_occupancy
Cs1 Cs1+ 4 e 0.8033(1) 0.1958(1) 0.9546(1) . 1.
Mo1 Mo3+ 4 e 0.7617(2) -.3992(1) 0.7414(1) . 1.
P1 P5+ 4 e 0.8704(5) -.0965(4) 0.6707(5) . 1.
P2 P5+ 4 e 0.5714(5) -.3699(4) 0.3142(4) . 1.
O1 O2- 4 e 0.914(1) -.234(1) 0.738(1) 0.7(2) 1.
O2 O2- 4 e 0.678(1) -.394(1) 0.488(1) 0.5(1) 1.
O3 O2- 4 e 0.614(1) -.572(1) 0.732(1) 0.9(2) 1.
O4 O2- 4 e 0.853(2) -.412(1) 0.990(1) 1.1(2) 1.
O5 O2- 4 e 0.560(1) -.271(1) 0.769(1) 0.7(2) 1.
O6 O2- 4 e 0.995(1) -.502(1) 0.728(1) 0.7(2) 1.
O7 O2- 4 e 0.679(1) -.443(1) 0.199(1) 0.8(2) 1.
loop_
_atom_site_aniso_label
_atom_site_aniso_type_symbol
_atom_site_aniso_U_11
_atom_site_aniso_U_22
_atom_site_aniso_U_33
_atom_site_aniso_U_12
_atom_site_aniso_U_13
_atom_site_aniso_U_23
Cs1 Cs1+ 0.0112(5) 0.0185(6) 0.0166(5) -.0012(5) -.0002(4) 0.0045(5)
Mo1 Mo3+ 0.0030(6) 0.0039(6) 0.0062(6) 0.0001(5) 0.0012(5) 0.0003(5)
P1 P5+ 0.006(2) 0.006(2) 0.007(2) -.001(2) 0.003(1) -.001(2)
P2 P5+ 0.004(2) 0.007(2) 0.009(2) 0.000(1) 0.002(1) -.001(2)
#End of TTdata_49919-ICSD
#
