(C) 2022 by FIZ Karlsruhe - Leibniz Institute for Information Infrastructure.  All rights reserved.
data_62674-ICSD
_database_code_ICSD 62674
_audit_creation_date 1988-07-15
_audit_update_record 2010-08-01
_chemical_name_common 'Tricesium tetramolybdo(III)molybdo(V)hexaphosphate(V)'
_chemical_formula_structural 'Cs3 (Mo5 P6 O25)'
_chemical_formula_sum 'Cs3 Mo5 O25 P6'
_chemical_name_structure_type Cs3Mo5P6O25
_exptl_crystal_density_diffrn 4.26
_citation_title

;
Cs3 Mo5 P6 O25, ein neues Molybdatophosphat mit einem cubanartigen Mo4 O4
-Cluster mit sechs Mo-Mo-Bindungen.
;
loop_
_citation_id
_citation_journal_full
_citation_year
_citation_journal_volume
_citation_page_first
_citation_page_last
_citation_journal_id_ASTM
primary 'Angewandte Chemie' 1987 99 576 577 ANCEAD
loop_
_citation_author_citation_id
_citation_author_name
primary 'Lii, K.-H.'
primary 'Haushalter, R.C.'
primary "O'Connor, C.J."
_cell_length_a 11.868(4)
_cell_length_b 11.868(4)
_cell_length_c 9.352(2)
_cell_angle_alpha 90.
_cell_angle_beta 90.
_cell_angle_gamma 120.
_cell_volume 1140.75
_cell_formula_units_Z 2
_space_group_name_H-M_alt 'P 3 1 c'
_space_group_IT_number 159
loop_
_space_group_symop_id
_space_group_symop_operation_xyz
1 '-x, -x+y, z+1/2'
2 'x-y, -y, z+1/2'
3 'y, x, z+1/2'
4 '-x+y, -x, z'
5 '-y, x-y, z'
6 'x, y, z'
loop_
_atom_type_symbol
_atom_type_oxidation_number
Mo5+ 5
Mo3+ 3
Cs1+ 1
P5+ 5
O2- -2
loop_
_atom_site_label
_atom_site_type_symbol
_atom_site_symmetry_multiplicity
_atom_site_Wyckoff_symbol
_atom_site_fract_x
_atom_site_fract_y
_atom_site_fract_z
_atom_site_B_iso_or_equiv
_atom_site_occupancy
Mo1 Mo5+ 2 b 0.6667 0.3333 0.0445 . 1.
Mo2 Mo3+ 2 a 0 0 -.0352(2) . 1.
Mo3 Mo3+ 6 c 0.66921(6) 0.20342(5) -.1725(1) . 1.
Cs1 Cs1+ 6 c 0.30553(5) -.10305(5) -.0972(1) . 1.
P1 P5+ 6 c 0.6379(2) 0.0602(2) 0.1304(2) . 1.
P2 P5+ 6 c 0.8485(2) 0.0874(2) -.2889(2) . 1.
O1 O2- 6 c 0.6662(5) 0.1939(5) 0.1840(6) . 1.
O2 O2- 2 b 0.6667 0.3333 -.315(1) . 1.
O3 O2- 6 c 0.5136(5) 0.1804(5) -.0574(7) . 1.
O4 O2- 6 c 0.6486(5) 0.0551(5) -.0322(6) . 1.
O5 O2- 6 c 0.8181(5) 0.1984(5) -.2887(6) . 1.
O6 O2- 6 c 0.5543(5) 0.0470(5) -.3134(6) . 1.
O7 O2- 6 c 0.9099(6) 0.0803(6) -.1524(7) . 1.
O8 O2- 6 c 0.7528(5) 0.0448(5) 0.1997(6) . 1.
O9 O2- 6 c 0.9257(6) 0.0992(5) -.4198(7) . 1.
loop_
_atom_site_aniso_label
_atom_site_aniso_type_symbol
_atom_site_aniso_U_11
_atom_site_aniso_U_22
_atom_site_aniso_U_33
_atom_site_aniso_U_12
_atom_site_aniso_U_13
_atom_site_aniso_U_23
Mo1 Mo5+ 0.0038(4) 0.0038 0.0073(4) 0.0019 0 0
Mo2 Mo3+ 0.0044(4) 0.0044 0.0064(4) 0.0022 0 0
Mo3 Mo3+ 0.0062(3) 0.0048(2) 0.0073(3) 0.0033(2) 0.0002(2) -0.0007(2)
Cs1 Cs1+ 0.0162(2) 0.0183(2) 0.0208(2) 0.0034(2) 0.0041(2) -0.0045(2)
P1 P5+ 0.0057(7) 0.0054(7) 0.0082(8) 0.0029(6) 0.0000(6) 0.0018(6)
P2 P5+ 0.0047(7) 0.0051(7) 0.0081(8) 0.0026(6) -0.0009(6) -0.0002(6)
O1 O2- 0.018(3) 0.009(2) 0.004(2) 0.008(2) 0.002(2) 0.001(2)
O2 O2- 0.006(4) 0.006 0.015(5) 0.003 0 0
O3 O2- 0.007(2) 0.007(2) 0.015(2) 0.004(2) 0.000(2) 0.002(2)
O4 O2- 0.016(3) 0.011(2) 0.005(2) 0.009(2) -0.004(2) -0.002(2)
O5 O2- 0.007(2) 0.006(2) 0.014(2) 0.005(2) 0.002(2) 0.002(2)
O6 O2- 0.013(2) 0.006(2) 0.008(2) 0.007(2) -0.003(2) -0.005(2)
O7 O2- 0.013(3) 0.013(3) 0.024(3) 0.005(2) -0.008(2) 0.000(2)
O8 O2- 0.009(2) 0.009(2) 0.011(2) 0.005(2) 0.001(2) 0.002(2)
O9 O2- 0.014(2) 0.011(3) 0.016(3) 0.009(2) 0.004(2) 0.000(2)
#End of TTdata_62674-ICSD
#
