(C) 2022 by FIZ Karlsruhe - Leibniz Institute for Information Infrastructure.  All rights reserved.
data_172495-ICSD
_database_code_ICSD 172495
_audit_creation_date 2007-04-01
_chemical_name_common 'Tricesium europium hexasilicate'
_chemical_formula_structural 'Cs3 Eu Si6 O15'
_chemical_formula_sum 'Cs3 Eu1 O15 Si6'
_exptl_crystal_density_diffrn 3.78
_diffrn_ambient_temperature 296.
_citation_title

;
High-temperature, high-pressure hydrothermal synthesis, crystal structure, and
luminescence properties of Cs3 Eu Si6 O15, a new europium(III) silicate with a
three-dimensional framework structure
;
loop_
_citation_id
_citation_journal_full
_citation_year
_citation_journal_volume
_citation_page_first
_citation_page_last
_citation_journal_id_ASTM
primary 'Chemistry of Materials' 2005 17 5743 5747 CMATEX
loop_
_citation_author_citation_id
_citation_author_name
primary 'Huang Meowhu'
primary 'Chen, Y.-H.'
primary 'Chang Borchen'
primary 'Lii, K.-H.'
_cell_length_a 7.16640(10)
_cell_length_b 28.4756(6)
_cell_length_c 8.5418(2)
_cell_angle_alpha 90.
_cell_angle_beta 104.9760(10)
_cell_angle_gamma 90.
_cell_volume 1683.9
_cell_formula_units_Z 4
_space_group_name_H-M_alt 'P 1 21/n 1'
_space_group_IT_number 14
loop_
_space_group_symop_id
_space_group_symop_operation_xyz
1 '-x+1/2, y+1/2, -z+1/2'
2 '-x, -y, -z'
3 'x+1/2, -y+1/2, z+1/2'
4 'x, y, z'
loop_
_atom_type_symbol
_atom_type_oxidation_number
Cs1+ 1
Eu3+ 3
Si4+ 4
O2- -2
loop_
_atom_site_label
_atom_site_type_symbol
_atom_site_symmetry_multiplicity
_atom_site_Wyckoff_symbol
_atom_site_fract_x
_atom_site_fract_y
_atom_site_fract_z
_atom_site_U_iso_or_equiv
_atom_site_occupancy
Cs1 Cs1+ 4 e -0.2860(4) 0.50730(10) 0.7300(3) 0.0395(4) 0.5
Cs2 Cs1+ 4 e -0.2897(4) 0.50204(10) 0.7903(2) 0.0401(5) 0.5
Cs3 Cs1+ 4 e -0.28546(5) 0.756273(14) 0.68569(5) 0.03082(11) 1
Cs4 Cs1+ 4 e -0.49569(5) 0.63725(2) 0.96039(6) 0.04358(14) 1
Eu1 Eu3+ 4 e 0.49158(3) 0.623807(9) 0.45888(3) 0.00827(7) 1
Si1 Si4+ 4 e 0.17226(18) 0.55743(5) 0.64021(18) 0.0106(3) 1
Si2 Si4+ 4 e -0.03270(17) 0.63739(5) 0.78132(17) 0.0087(3) 1
Si3 Si4+ 4 e 0.16234(17) 0.70881(5) 0.60775(17) 0.0081(3) 1
Si4 Si4+ 4 e 0.30947(17) 0.79818(5) 0.81378(17) 0.0078(3) 1
Si5 Si4+ 4 e 0.52165(17) 0.87831(5) 0.65717(17) 0.0075(3) 1
Si6 Si4+ 4 e 0.33212(18) 0.95128(5) 0.81183(17) 0.0098(3) 1
O1 O2- 4 e 0.1718(5) 0.50712(12) 0.7304(4) 0.0163(8) 1
O2 O2- 4 e 0.0038(5) 0.55684(15) 0.4738(5) 0.0263(10) 1
O3 O2- 4 e 0.3766(5) 0.56873(13) 0.6120(5) 0.0232(9) 1
O4 O2- 4 e 0.1089(5) 0.59426(13) 0.7640(5) 0.0178(8) 1
O5 O2- 4 e -0.2446(5) 0.63388(15) 0.6741(5) 0.0242(9) 1
O6 O2- 4 e -0.0330(5) 0.63986(14) 0.9715(4) 0.0178(8) 1
O7 O2- 4 e 0.0785(5) 0.68586(12) 0.7529(4) 0.0153(8) 1
O8 O2- 4 e 0.3080(5) 0.67646(13) 0.5511(5) 0.0194(9) 1
O9 O2- 4 e -0.0288(4) 0.72512(13) 0.4662(4) 0.0152(8) 1
O10 O2- 4 e 0.2689(5) 0.75818(12) 0.6714(4) 0.0137(8) 1
O11 O2- 4 e 0.1136(5) 0.81265(13) 0.8512(5) 0.0194(9) 1
O12 O2- 4 e 0.4201(5) 0.84001(13) 0.7479(4) 0.0167(8) 1
O13 O2- 4 e 0.7452(5) 0.88291(13) 0.7251(5) 0.0197(9) 1
O14 O2- 4 e 0.4023(5) 0.92741(12) 0.6610(4) 0.0158(8) 1
O15 O2- 4 e 0.1325(5) 0.93269(14) 0.8271(5) 0.0240(10) 1
loop_
_atom_site_aniso_label
_atom_site_aniso_type_symbol
_atom_site_aniso_U_11
_atom_site_aniso_U_22
_atom_site_aniso_U_33
_atom_site_aniso_U_12
_atom_site_aniso_U_13
_atom_site_aniso_U_23
Cs1 Cs1+ 0.0212(5) 0.0360(9) 0.0609(14) 0.0096(5) 0.0097(9) -0.0019(10)
Cs2 Cs1+ 0.0249(5) 0.0331(8) 0.0590(14) 0.0019(4) 0.0050(9) 0.0016(9)
Cs3 Cs1+ 0.02407(18) 0.0319(2) 0.0418(3) 0.00571(15) 0.01813(18) -0.0082(2)
Cs4 Cs1+ 0.01548(17) 0.0777(4) 0.0326(3) 0.00276(18) -0.00286(17) -0.0211(3)
Eu1 Eu3+ 0.00640(10) 0.00909(13) 0.00915(14) -0.00003(9) 0.00172(9) -0.00052(11)
Si1 Si4+ 0.0104(6) 0.0084(7) 0.0134(8) 0.0000(5) 0.0036(5) 0.0002(6)
Si2 Si4+ 0.0071(5) 0.0110(7) 0.0071(7) -0.0010(5) 0.0003(5) -0.0007(6)
Si3 Si4+ 0.0072(5) 0.0081(7) 0.0090(7) -0.0006(5) 0.0022(5) -0.0020(6)
Si4 Si4+ 0.0084(5) 0.0065(7) 0.0082(7) -0.0006(5) 0.0016(5) -0.0014(6)
Si5 Si4+ 0.0085(5) 0.0081(7) 0.0054(7) 0.0000(5) 0.0012(5) -0.0007(6)
Si6 Si4+ 0.0104(6) 0.0075(7) 0.0120(8) -0.0002(5) 0.0037(5) 0.0006(6)
O1 O2- 0.0245(18) 0.0081(19) 0.019(2) 0.0004(14) 0.0104(16) 0.0011(17)
O2 O2- 0.027(2) 0.028(3) 0.018(2) -0.0034(17) -0.0058(18) 0.0044(19)
O3 O2- 0.0162(17) 0.020(2) 0.037(3) 0.0036(15) 0.0126(18) 0.010(2)
O4 O2- 0.0230(18) 0.013(2) 0.017(2) 0.0023(15) 0.0047(16) -0.0022(17)
O5 O2- 0.0114(16) 0.040(3) 0.017(2) -0.0024(16) -0.0034(15) -0.0030(19)
O6 O2- 0.0196(18) 0.022(2) 0.012(2) -0.0045(15) 0.0044(16) -0.0072(18)
O7 O2- 0.0241(18) 0.011(2) 0.014(2) -0.0012(15) 0.0096(16) 0.0010(16)
O8 O2- 0.0167(17) 0.019(2) 0.025(2) 0.0049(15) 0.0086(16) -0.0056(18)
O9 O2- 0.0133(16) 0.017(2) 0.013(2) 0.0021(14) -0.0007(14) -0.0027(17)
O10 O2- 0.0169(16) 0.014(2) 0.0111(19) -0.0069(14) 0.0051(14) -0.0070(16)
O11 O2- 0.0128(16) 0.018(2) 0.030(2) 0.0007(14) 0.0102(16) -0.0048(18)
O12 O2- 0.0221(18) 0.013(2) 0.015(2) -0.0051(15) 0.0051(16) 0.0012(17)
O13 O2- 0.0128(16) 0.030(2) 0.016(2) -0.0007(15) 0.0016(15) 0.0034(18)
O14 O2- 0.0251(19) 0.0089(19) 0.016(2) 0.0052(15) 0.0092(16) 0.0013(16)
O15 O2- 0.0148(17) 0.020(2) 0.040(3) -0.0002(15) 0.0116(18) 0.009(2)
#End of TTdata_172495-ICSD
#
