(C) 2022 by FIZ Karlsruhe - Leibniz Institute for Information Infrastructure.  All rights reserved.
data_80210-ICSD
_database_code_ICSD 80210
_audit_creation_date 1996-10-14
_chemical_name_common 'Cesium diaquatriphosphatoferrate(II)diferrate(III)'
_chemical_formula_structural 'Cs (Fe3 (P O4)3 (H2 O)2)'
_chemical_formula_sum 'H4 Cs1 Fe3 O14 P3'
_chemical_name_structure_type KNi(H2O)2Al2(PO4)3
_exptl_crystal_density_diffrn 3.42
_diffrn_ambient_temperature 296.
_citation_title

;
Cs Fe3 (P O4)3 (O H2)2: a mixed-valence iron phosphate containing trimeric
units of iron-oxygen polyhedra
;
loop_
_citation_id
_citation_journal_full
_citation_year
_citation_journal_volume
_citation_page_first
_citation_page_last
_citation_journal_id_ASTM
primary
'Journal of the Chemical Society, Dalton Transactions: Inorganic Chemistry ' 1995 1995 571 574 JCDTBI
loop_
_citation_author_citation_id
_citation_author_name
primary 'Lii, K.-H.'
primary 'Huang, C.Y.'
_cell_length_a 13.435(2)
_cell_length_b 10.488(1)
_cell_length_c 9.024(2)
_cell_angle_alpha 90.
_cell_angle_beta 108.60(1)
_cell_angle_gamma 90.
_cell_volume 1205.12
_cell_formula_units_Z 4
_space_group_name_H-M_alt 'C 1 2/c 1'
_space_group_IT_number 15
loop_
_space_group_symop_id
_space_group_symop_operation_xyz
1 'x, -y, z+1/2'
2 '-x, -y, -z'
3 '-x, y, -z+1/2'
4 'x, y, z'
5 'x+1/2, -y+1/2, z+1/2'
6 '-x+1/2, -y+1/2, -z'
7 '-x+1/2, y+1/2, -z+1/2'
8 'x+1/2, y+1/2, z'
loop_
_atom_type_symbol
_atom_type_oxidation_number
Cs1+ 1
Fe2+ 2
Fe3+ 3
P5+ 5
O2- -2
H1+ 1
loop_
_atom_site_label
_atom_site_type_symbol
_atom_site_symmetry_multiplicity
_atom_site_Wyckoff_symbol
_atom_site_fract_x
_atom_site_fract_y
_atom_site_fract_z
_atom_site_B_iso_or_equiv
_atom_site_occupancy
Cs1 Cs1+ 4 e 0 0.35825(3) 0.25 . 1.
Fe1 Fe2+ 4 e 0 0.71841(6) 0.25 . 1.
Fe2 Fe3+ 8 f 0.67236(3) 0.42468(4) 0.07450(5) . 1.
P1 P5+ 4 e 0 -.0084(1) 0.25 . 1.
P2 P5+ 8 f 0.20795(6) 0.62873(8) 0.1710(1) . 1.
O1 O2- 8 f 0.7141(2) 0.5846(2) 0.1700(3) . 1.
O2 O2- 8 f 0.7760(2) 0.4514(2) -.0380(3) . 1.
O3 O2- 8 f -.0578(2) 0.0790(2) 0.1150(3) . 1.
O4 O2- 8 f 0.1174(2) 0.2966(3) -.0165(3) . 1.
O5 O2- 8 f 0.7371(2) 0.2687(2) 0.1560(3) . 1.
O6 O2- 8 f 0.5737(2) 0.3996(2) 0.2020(3) . 1.
O7 O2- 8 f 0.0951(2) 0.6138(2) 0.1667(3) . 1.
#End of TTdata_80210-ICSD
#
