(C) 2022 by FIZ Karlsruhe - Leibniz Institute for Information Infrastructure.  All rights reserved.
data_75441-ICSD
_database_code_ICSD 75441
_audit_creation_date 1996-04-22
_audit_update_record 2015-08-01
_chemical_name_common 'Sodium tricobalt phosphate(V) bis(hydrogenphosphate(V))'
_chemical_formula_structural 'Na Co3 (P O4) (H P O4)2'
_chemical_formula_sum 'H2 Co3 Na1 O12 P3'
_chemical_name_structure_type Alluaudite-frame#Na1.5Mn2.5Al(PO4)3
_chemical_name_mineral Alluaudite-(Co)
_exptl_crystal_density_diffrn 3.78
_diffrn_ambient_temperature 296.
_citation_title

;
Hydrothermal synthesis and crystal structures of Na Co3 (P O4) (H PO4)2 and Na
Co3 (As O4) (H As O4)2: synthetic modifications of the mineral alluaudite
;
loop_
_citation_id
_citation_journal_full
_citation_year
_citation_journal_volume
_citation_page_first
_citation_page_last
_citation_journal_id_ASTM
primary 'Inorganic Chemistry' 1994 33 3028 3031 INOCAJ
loop_
_citation_author_citation_id
_citation_author_name
primary 'Lii, K.-H.'
primary 'Shih, P.-F.'
_cell_length_a 11.865(2)
_cell_length_b 12.137(2)
_cell_length_c 6.512(1)
_cell_angle_alpha 90.
_cell_angle_beta 114.12(1)
_cell_angle_gamma 90.
_cell_volume 855.89
_cell_formula_units_Z 4
_space_group_name_H-M_alt 'C 1 2/c 1'
_space_group_IT_number 15
loop_
_space_group_symop_id
_space_group_symop_operation_xyz
1 'x, -y, z+1/2'
2 '-x, -y, -z'
3 '-x, y, -z+1/2'
4 'x, y, z'
5 'x+1/2, -y+1/2, z+1/2'
6 '-x+1/2, -y+1/2, -z'
7 '-x+1/2, y+1/2, -z+1/2'
8 'x+1/2, y+1/2, z'
loop_
_atom_type_symbol
_atom_type_oxidation_number
Na1+ 1
Co2+ 2
P5+ 5
O2- -2
H1+ 1
loop_
_atom_site_label
_atom_site_type_symbol
_atom_site_symmetry_multiplicity
_atom_site_Wyckoff_symbol
_atom_site_fract_x
_atom_site_fract_y
_atom_site_fract_z
_atom_site_U_iso_or_equiv
_atom_site_occupancy
Na1 Na1+ 4 e 0 0.0246(5) 0.75 0.039(2) 1.
Co1 Co2+ 4 e 0 0.2810(1) 0.25 0.0103(4) 1.
Co2 Co2+ 8 f 0.29008(8) 0.66232(8) 0.3758(1) 0.0089(3) 1.
P1 P5+ 4 e 0 0.6842(2) 0.25 0.0080(7) 1.
P2 P5+ 8 f 0.2183(1) 0.8886(1) 0.1125(3) 0.0077(5) 1.
O1 O2- 8 f 0.4647(4) 0.7432(4) 0.5394(7) 0.011(1) 1.
O2 O2- 8 f 0.1074(4) 0.6077(4) 0.2645(7) 0.011(1) 1.
O3 O2- 8 f 0.3463(4) 0.6719(4) 0.1127(7) 0.010(1) 1.
O4 O2- 8 f 0.1415(4) 0.4080(4) 0.3430(7) 0.011(1) 1.
O5 O2- 8 f 0.2151(4) 0.8207(4) 0.3067(7) 0.009(1) 1.
O6 O2- 8 f 0.3443(4) 0.4990(4) 0.4004(7) 0.011(1) 1.
H1 H1+ 8 f 0.8766 0.4831 0.1775 0.05(1) 1.
#End of TTdata_75441-ICSD
#
