(C) 2022 by FIZ Karlsruhe - Leibniz Institute for Information Infrastructure.  All rights reserved.
data_240275-ICSD
_database_code_ICSD 240275
_audit_creation_date 2005-10-01
_audit_update_record 2006-10-01
_chemical_name_common 'Pentasodium indium dodecaoxotetrasilicate'
_chemical_formula_structural 'Na5 In (Si4 O12)'
_chemical_formula_sum 'In1 Na5 O12 Si4'
_exptl_crystal_density_diffrn 3.14
_citation_title

;
Hydrothermal synthesis, crystal structure, solid-state NMR spectroscopy, and
ionic conductivity of Na5 In Si4 O12, a silicate containing a single
12-membered ring
;
loop_
_citation_id
_citation_journal_full
_citation_year
_citation_journal_volume
_citation_page_first
_citation_page_last
_citation_journal_id_ASTM
primary 'Chemistry of Materials' 2004 16 1660 1666 CMATEX
loop_
_citation_author_citation_id
_citation_author_name
primary 'Hung, L.-I.'
primary 'Wang, S.-L.'
primary 'Szu, S.-P.'
primary 'Hsieh, C.-Y.'
primary 'Kao, H.-M.'
primary 'Lii, K.-H.'
_cell_length_a 21.7158(9)
_cell_length_b 21.7158(9)
_cell_length_c 12.4479(7)
_cell_angle_alpha 90.
_cell_angle_beta 90.
_cell_angle_gamma 120.
_cell_volume 5083.68
_cell_formula_units_Z 18
_space_group_name_H-M_alt 'R -3 c H'
_space_group_IT_number 167
loop_
_space_group_symop_id
_space_group_symop_operation_xyz
1 'x-y, -y, -z+1/2'
2 '-x, -x+y, -z+1/2'
3 'y, x, -z+1/2'
4 'x-y, x, -z'
5 'y, -x+y, -z'
6 '-x, -y, -z'
7 '-x+y, y, z+1/2'
8 'x, x-y, z+1/2'
9 '-y, -x, z+1/2'
10 '-x+y, -x, z'
11 '-y, x-y, z'
12 'x, y, z'
13 'x-y+2/3, -y+1/3, -z+5/6'
14 '-x+2/3, -x+y+1/3, -z+5/6'
15 'y+2/3, x+1/3, -z+5/6'
16 'x-y+2/3, x+1/3, -z+1/3'
17 'y+2/3, -x+y+1/3, -z+1/3'
18 '-x+2/3, -y+1/3, -z+1/3'
19 '-x+y+2/3, y+1/3, z+5/6'
20 'x+2/3, x-y+1/3, z+5/6'
21 '-y+2/3, -x+1/3, z+5/6'
22 '-x+y+2/3, -x+1/3, z+1/3'
23 '-y+2/3, x-y+1/3, z+1/3'
24 'x+2/3, y+1/3, z+1/3'
25 'x-y+1/3, -y+2/3, -z+1/6'
26 '-x+1/3, -x+y+2/3, -z+1/6'
27 'y+1/3, x+2/3, -z+1/6'
28 'x-y+1/3, x+2/3, -z+2/3'
29 'y+1/3, -x+y+2/3, -z+2/3'
30 '-x+1/3, -y+2/3, -z+2/3'
31 '-x+y+1/3, y+2/3, z+1/6'
32 'x+1/3, x-y+2/3, z+1/6'
33 '-y+1/3, -x+2/3, z+1/6'
34 '-x+y+1/3, -x+2/3, z+2/3'
35 '-y+1/3, x-y+2/3, z+2/3'
36 'x+1/3, y+2/3, z+2/3'
loop_
_atom_type_symbol
_atom_type_oxidation_number
Na1+ 1
In3+ 3
Si4+ 4
O2- -2
loop_
_atom_site_label
_atom_site_type_symbol
_atom_site_symmetry_multiplicity
_atom_site_Wyckoff_symbol
_atom_site_fract_x
_atom_site_fract_y
_atom_site_fract_z
_atom_site_U_iso_or_equiv
_atom_site_occupancy
Na1 Na1+ 36 f 0.59317(13) 0.19257(12) -0.02977(19) 0.0191(5) 1
Na2 Na1+ 18 e 0.3333 -0.05280(17) -0.0833 0.0251(8) 1
Na3 Na1+ 36 f 0.3287(5) 0.1810(5) 0.0440(12) 0.057(3) 0.33
Na4 Na1+ 18 d 0.3333 0.1667 0.1667 0.053(2) 0.67
Na5 Na1+ 6 b 0.6667 0.3333 -0.1667 0.0174(11) 1
Na6 Na1+ 6 a 0.6667 0.3333 0.0833 0.0169(11) 1
In1 In3+ 18 e 0.75252(2) 0.75252(2) 0.75 0.00859(15) 1
Si1 Si4+ 36 f 0.42941(8) 0.11310(8) -0.18660(11) 0.0095(3) 1
Si2 Si4+ 36 f 0.48251(7) 0.24390(8) -0.04234(11) 0.0094(3) 1
O1 O2- 36 f 0.3557(2) 0.0831(2) -0.2484(3) 0.0165(8) 1
O2 O2- 36 f 0.4312(2) 0.0697(2) -0.0847(3) 0.0151(8) 1
O3 O2- 36 f 0.48514(19) 0.1168(2) -0.2806(3) 0.0155(8) 1
O4 O2- 36 f 0.4573(2) 0.1966(2) -0.1542(3) 0.0179(9) 1
O5 O2- 36 f 0.4447(2) 0.1945(2) 0.0607(3) 0.0143(8) 1
O6 O2- 36 f 0.5671(2) 0.2866(2) -0.0366(3) 0.0173(8) 1
loop_
_atom_site_aniso_label
_atom_site_aniso_type_symbol
_atom_site_aniso_U_11
_atom_site_aniso_U_22
_atom_site_aniso_U_33
_atom_site_aniso_U_12
_atom_site_aniso_U_13
_atom_site_aniso_U_23
Na1 Na1+ 0.0186(11) 0.0149(11) 0.0237(12) 0.0083(10) 0.0031(10) 0.0010(9)
Na2 Na1+ 0.036(2) 0.0271(13) 0.0148(17) 0.0182(11) -0.0124(15) -0.0062(7)
Na3 Na1+ 0.016(4) 0.027(5) 0.130(11) 0.012(4) 0.002(5) -0.001(6)
Na4 Na1+ 0.033(4) 0.017(3) 0.097(6) 0.004(3) 0.030(4) -0.014(4)
Na5 Na1+ 0.0159(16) 0.0159(16) 0.020(3) 0.0080(8) 0. 0.
Na6 Na1+ 0.0163(16) 0.0163(16) 0.018(3) 0.0082(8) 0. 0.
In1 In3+ 0.0080(2) 0.0080(2) 0.0095(3) 0.0038(2) 0.00003(9) -0.00003(9)
Si1 Si4+ 0.0089(6) 0.0100(6) 0.0085(7) 0.0039(5) 0.0010(5) -0.0011(5)
Si2 Si4+ 0.0099(6) 0.0067(6) 0.0103(7) 0.0032(5) 0.0000(5) 0.0009(5)
O1 O2- 0.0098(18) 0.021(2) 0.015(2) 0.0047(16) 0.0018(15) -0.0030(16)
O2 O2- 0.022(2) 0.0135(18) 0.0100(18) 0.0088(16) 0.0028(16) 0.0009(15)
O3 O2- 0.0100(17) 0.025(2) 0.0101(18) 0.0083(16) 0.0020(14) -0.0015(16)
O4 O2- 0.028(2) 0.0099(18) 0.0112(18) 0.0058(17) -0.0022(16) -0.0034(15)
O5 O2- 0.0174(19) 0.0145(19) 0.0117(18) 0.0084(16) 0.0011(15) 0.0016(15)
O6 O2- 0.0102(17) 0.0154(19) 0.024(2) 0.0045(16) -0.0021(15) 0.0017(17)
#End of TTdata_240275-ICSD
#
