(C) 2022 by FIZ Karlsruhe - Leibniz Institute for Information Infrastructure.  All rights reserved.
data_45178-ICSD
_database_code_ICSD 45178
_audit_creation_date 2022-08-01
_chemical_name_common 'Lithium tetralanthanum dinitride heptaiodide'
_chemical_formula_structural 'Li La4 N2 I7'
_chemical_formula_sum 'I7 La4 Li1 N2'
_chemical_name_structure_type LiLa4N2I7
_exptl_crystal_density_diffrn 5.4
_diffrn_ambient_temperature 250.
_citation_title

;
LiLa$_4$N$_2$I$_7$ as the first lithium-containing nitride halide of the
lanthanides. Synthesis, crystal structure and spectroscopic characterization
;
loop_
_citation_id
_citation_journal_full
_citation_year
_citation_journal_volume
_citation_page_first
_citation_page_last
_citation_journal_id_ASTM
primary 'Solid State Sciences' 2020 99 '' '' SSSCFJ
loop_
_citation_author_citation_id
_citation_author_name
primary 'Schurz, Christian M.'
primary 'Niewa, Rainer'
primary 'Schleid, Thomas'
_cell_length_a 13.7935(3)
_cell_length_b 12.1582(3)
_cell_length_c 10.8423(3)
_cell_angle_alpha 90.
_cell_angle_beta 90.
_cell_angle_gamma 90.
_cell_volume 1818.29
_cell_formula_units_Z 4
_space_group_name_H-M_alt 'P n m a'
_space_group_IT_number 62
loop_
_space_group_symop_id
_space_group_symop_operation_xyz
1 'x+1/2, y, -z+1/2'
2 'x, -y+1/2, z'
3 '-x+1/2, y+1/2, z+1/2'
4 '-x, -y, -z'
5 '-x+1/2, -y, z+1/2'
6 '-x, y+1/2, -z'
7 'x+1/2, -y+1/2, -z+1/2'
8 'x, y, z'
loop_
_atom_type_symbol
_atom_type_oxidation_number
Li1+ 1
La3+ 3
N3- -3
I1- -1
loop_
_atom_site_label
_atom_site_type_symbol
_atom_site_symmetry_multiplicity
_atom_site_Wyckoff_symbol
_atom_site_fract_x
_atom_site_fract_y
_atom_site_fract_z
_atom_site_U_iso_or_equiv
_atom_site_occupancy
Li1 Li1+ 4 c 0.431(3) 0.25 0.955(3) 0.050(9) 1
La1 La3+ 4 c 0.08922(5) 0.25 0.87220(7) 0.01412(14) 1
La2 La3+ 4 c 0.39375(5) 0.25 0.40685(7) 0.01483(14) 1
La3 La3+ 8 d 0.09121(4) 0.01182(4) 0.11993(5) 0.01435(11) 1
N1 N3- 8 d 0.4969(5) 0.1243(6) 0.5076(7) 0.0144(13) 1
I1 I1- 4 c 0.04135(7) 0.25 0.31485(8) 0.02234(18) 1
I2 I1- 4 c 0.25395(6) 0.25 0.09161(8) 0.02192(18) 1
I3 I1- 4 c 0.29791(6) 0.25 0.68867(8) 0.02128(18) 1
I4 I1- 8 d 0.03251(5) 0.07997(6) 0.64889(6) 0.02345(14) 1
I5 I1- 8 d 0.25820(5) 0.02266(5) 0.38749(6) 0.02489(15) 1
loop_
_atom_site_aniso_label
_atom_site_aniso_type_symbol
_atom_site_aniso_U_11
_atom_site_aniso_U_22
_atom_site_aniso_U_33
_atom_site_aniso_U_12
_atom_site_aniso_U_13
_atom_site_aniso_U_23
Li1 Li1+ 0.035(17) 0.07(2) 0.046(19) 0. 0.018(15) 0.
La1 La3+ 0.0150(3) 0.0128(3) 0.0145(3) 0. 0.0015(2) 0.
La2 La3+ 0.0137(3) 0.0119(3) 0.0188(3) 0. -0.0022(3) 0.
La3 La3+ 0.0158(2) 0.0120(2) 0.0153(2) 0.00012(17) -0.00211(17) 0.00017(17)
N1 N3- 0.013(3) 0.012(3) 0.018(3) -0.002(3) 0.003(3) -0.001(3)
I1 I1- 0.0236(4) 0.0262(4) 0.0173(4) 0. -0.0005(3) 0.
I2 I1- 0.0193(4) 0.0255(4) 0.0210(4) 0. -0.0001(3) 0.
I3 I1- 0.0207(4) 0.0194(4) 0.0238(4) 0. 0.0067(3) 0.
I4 I1- 0.0279(3) 0.0253(3) 0.0172(3) -0.0063(3) 0.0027(2) -0.0042(2)
I5 I1- 0.0233(3) 0.0207(3) 0.0307(3) -0.0043(2) -0.0083(3) 0.0016(3)
#End of TTdata_45178-ICSD
#
