(C) 2022 by FIZ Karlsruhe - Leibniz Institute for Information Infrastructure.  All rights reserved.
data_417728-ICSD
_database_code_ICSD 417728
_audit_creation_date 2008-08-01
_audit_update_record 2011-02-01
_chemical_name_common
'Sodium pentakis(monooxomolybdate(V)) tetrakis(diphosphate)'
_chemical_formula_structural 'Na (Mo O)5 (P2 O7)4'
_chemical_formula_sum 'Mo5 Na1 O33 P8'
_chemical_name_structure_type Li(MoO)5(P2O7)4
_exptl_crystal_density_diffrn 3.32
_citation_title

;
A large series of isotypic Mo(V) diphosphates with a tunnel structure from A
(Mo O)10 (P2 O7)8 with A = Ba, Sr, Ca, Cd, Pb, to A (Mo O)5 (P2 O7)4 with A =
Ag, Li, Na, K
;
loop_
_citation_id
_citation_journal_full
_citation_year
_citation_journal_volume
_citation_page_first
_citation_page_last
_citation_journal_id_ASTM
primary 'Journal of Solid State Chemistry' 2007 180 2044 2052 JSSCBI
loop_
_citation_author_citation_id
_citation_author_name
primary 'Leclaire, A.'
primary 'Caignaert, V.'
primary 'Raveau, B.'
_cell_length_a 32.35260(10)
_cell_length_b 4.84490(10)
_cell_length_c 22.90680(10)
_cell_angle_alpha 90
_cell_angle_beta 134.6580(10)
_cell_angle_gamma 90
_cell_volume 2554.
_cell_formula_units_Z 4
_space_group_name_H-M_alt 'C 1 2/c 1'
_space_group_IT_number 15
loop_
_space_group_symop_id
_space_group_symop_operation_xyz
1 'x, -y, z+1/2'
2 '-x, -y, -z'
3 '-x, y, -z+1/2'
4 'x, y, z'
5 'x+1/2, -y+1/2, z+1/2'
6 '-x+1/2, -y+1/2, -z'
7 '-x+1/2, y+1/2, -z+1/2'
8 'x+1/2, y+1/2, z'
loop_
_atom_type_symbol
_atom_type_oxidation_number
Mo5+ 5
P5+ 5
Na1+ 1
O2- -2
loop_
_atom_site_label
_atom_site_type_symbol
_atom_site_symmetry_multiplicity
_atom_site_Wyckoff_symbol
_atom_site_fract_x
_atom_site_fract_y
_atom_site_fract_z
_atom_site_U_iso_or_equiv
_atom_site_occupancy
Mo1 Mo5+ 8 f 0.09248(2) 0.85313(9) 0.03814(3) 0.0087(3) 1
Mo2 Mo5+ 8 f 0.195848(20) 0.10506(8) 0.35274(3) 0.0090(3) 1
Mo3 Mo5+ 4 e 0 0.74385(16) 0.25 0.0096(5) 0.8369(9)
Mo4 Mo5+ 4 e 0 0.5091(8) 0.25 0.0096(5) 0.1631(9)
P1 P5+ 8 f 0.09862(6) 0.6002(3) 0.24679(9) 0.0089(9) 1
P2 P5+ 8 f 0.12606(6) 0.3542(3) 0.16416(9) 0.0099(9) 1
P3 P5+ 8 f 0.10206(6) 0.3527(3) -0.04968(9) 0.0093(9) 1
P4 P5+ 8 f 0.21192(6) 0.1103(3) 0.08902(10) 0.0101(9) 1
Na1 Na1+ 8 f 0.2571(4) 0.140(6) 0.2625(5) 0.175(10) 0.5
O1 O2- 8 f 0.02792(19) 0.7274(8) -0.0149(3) 0.023(3) 1
O2 O2- 8 f 0.09238(18) 1.1177(8) 0.1049(3) 0.017(3) 1
O3 O2- 8 f 0.13875(19) 0.5843(8) 0.1331(3) 0.017(3) 1
O4 O2- 8 f 0.11138(18) 0.6389(8) -0.0162(3) 0.017(3) 1
O5 O2- 8 f 0.07107(17) 1.1655(8) -0.0385(3) 0.016(3) 1
O6 O2- 8 f 0.18238(17) 1.0153(7) 0.1150(3) 0.012(3) 1
O7 O2- 8 f 0.2082(2) -0.0232(8) 0.4305(3) 0.023(3) 1
O8 O2- 8 f 0.25962(18) 0.3837(8) 0.4165(3) 0.019(3) 1
O9 O2- 8 f 0.12452(18) -0.1167(8) 0.2625(3) 0.019(3) 1
O10 O2- 8 f 0.13825(18) 0.4066(8) 0.3173(3) 0.019(3) 1
O11 O2- 8 f 0.24652(19) -0.1558(8) 0.3553(3) 0.021(3) 1
O12 O2- 8 f 0.18143(16) 0.2718(7) 0.2496(2) 0.011(3) 1
O13 O2- 4 e 0 1.0884(3) 0.25 0.040(6) 0.8369(9)
O14 O2- 4 e 0 0.1649(8) 0.25 0.040(6) 0.1631(9)
O15 O2- 8 f 0.03907(17) 0.6206(8) 0.2167(3) 0.015(3) 1
O16 O2- 8 f 0.07308(16) 0.6399(8) 0.3627(2) 0.014(3) 1
O17 O2- 8 f 0.08311(17) 0.4767(7) 0.1700(3) 0.011(3) 1
O18 O2- 8 f 0.16442(17) 0.2302(7) -0.0018(3) 0.013(3) 1
loop_
_atom_site_aniso_label
_atom_site_aniso_type_symbol
_atom_site_aniso_U_11
_atom_site_aniso_U_22
_atom_site_aniso_U_33
_atom_site_aniso_U_12
_atom_site_aniso_U_13
_atom_site_aniso_U_23
Mo1 Mo5+ 0.0133(2) 0.00438(19) 0.0105(2) -0.00083(18) 0.0091(2) -0.00050(20)
Mo2 Mo5+ 0.0127(2) 0.00380(19) 0.0101(2) 0.00017(18) 0.0080(2) 0.00068(20)
Mo3 Mo5+ 0.0083(4) 0.0127(3) 0.0086(4) 0 0.0062(3) 0
Mo4 Mo5+ 0.0083(4) 0.0127(3) 0.0086(4) 0 0.0062(3) 0
P1 P5+ 0.0123(7) 0.0065(6) 0.0110(7) -0.0008(5) 0.0093(6) -0.0017(6)
P2 P5+ 0.0160(7) 0.0056(6) 0.0114(7) 0.0015(5) 0.0109(7) 0.0012(6)
P3 P5+ 0.0125(7) 0.0068(6) 0.0084(7) 0.0010(5) 0.0073(6) 0.0009(6)
P4 P5+ 0.0109(7) 0.0067(6) 0.0119(7) 0.0003(5) 0.0078(6) 0.0006(6)
Na1 Na1+ 0.040(5) 0.46(2) 0.024(5) 0.093(9) 0.021(5) 0.030(10)
O1 O2- 0.016(2) 0.021(2) 0.029(3) -0.0085(18) 0.015(2) -0.012(2)
O2 O2- 0.021(2) 0.0172(19) 0.017(2) 0.0038(17) 0.014(2) -0.0014(19)
O3 O2- 0.026(2) 0.0123(18) 0.022(2) 0.0019(17) 0.019(2) 0.0067(18)
O4 O2- 0.023(2) 0.0103(17) 0.024(2) 0.0079(17) 0.020(2) 0.0045(19)
O5 O2- 0.014(2) 0.0153(18) 0.021(2) 0.0010(16) 0.013(2) 0.0068(18)
O6 O2- 0.0120(20) 0.0153(18) 0.011(2) -0.0039(15) 0.0091(19) -0.0015(17)
O7 O2- 0.035(3) 0.021(2) 0.014(2) 0.0031(19) 0.017(2) 0.0061(20)
O8 O2- 0.022(2) 0.0186(19) 0.018(2) -0.0104(18) 0.015(2) -0.0060(20)
O9 O2- 0.026(2) 0.0106(18) 0.018(2) -0.0063(17) 0.015(2) -0.0004(18)
O10 O2- 0.024(2) 0.0178(20) 0.019(2) 0.0056(18) 0.016(2) -0.0023(19)
O11 O2- 0.022(2) 0.0196(20) 0.017(2) 0.0101(18) 0.013(2) 0.0042(20)
O12 O2- 0.0110(19) 0.0123(17) 0.010(2) 0.0019(15) 0.0068(18) 0.0016(16)
O13 O2- 0.028(4) 0.044(5) 0.040(5) 0 0.021(4) 0
O14 O2- 0.028(4) 0.044(5) 0.040(5) 0 0.021(4) 0
O15 O2- 0.0138(20) 0.0210(19) 0.013(2) 0.0005(17) 0.0104(19) 0.0002(19)
O16 O2- 0.0114(19) 0.0199(19) 0.010(2) -0.0013(16) 0.0078(18) -0.0038(18)
O17 O2- 0.014(2) 0.0104(17) 0.010(2) -0.0002(15) 0.0093(19) -0.0028(16)
O18 O2- 0.013(2) 0.0117(17) 0.012(2) 0.0036(15) 0.0082(19) 0.0034(17)
#End of TTdata_417728-ICSD
#
