(C) 2022 by FIZ Karlsruhe - Leibniz Institute for Information Infrastructure.  All rights reserved.
data_262180-ICSD
_database_code_ICSD 262180
_audit_creation_date 2012-02-01
_chemical_name_common 'Dicesium uranyl(VI) decasilicate'
_chemical_formula_structural 'Cs2 U O2 Si10 O22'
_chemical_formula_sum 'Cs2 O24 Si10 U1'
_exptl_crystal_density_diffrn 3.37
_diffrn_ambient_temperature 296.
_citation_title

;
High-temperature, high-pressure hydrothermal synthesis and characterization of
an open-framework uranyl silicate with nine-ring channels: Cs2 U O2 Si10 O22
;
loop_
_citation_id
_citation_journal_full
_citation_year
_citation_journal_volume
_citation_page_first
_citation_page_last
_citation_journal_id_ASTM
primary 'Inorganic Chemistry' 2011 50 11773 11776 INOCAJ
loop_
_citation_author_citation_id
_citation_author_name
primary 'Liu Hsinkuan'
primary 'Chang Wenjung'
primary 'Lii Kwanghwa'
_cell_length_a 12.2506(4)
_cell_length_b 8.0518(3)
_cell_length_c 23.3796(8)
_cell_angle_alpha 90.
_cell_angle_beta 90.011(2)
_cell_angle_gamma 90.
_cell_volume 2306.15
_cell_formula_units_Z 4
_space_group_name_H-M_alt 'P 1 21/c 1'
_space_group_IT_number 14
loop_
_space_group_symop_id
_space_group_symop_operation_xyz
1 'x, -y+1/2, z+1/2'
2 '-x, -y, -z'
3 '-x, y+1/2, -z+1/2'
4 'x, y, z'
loop_
_atom_type_symbol
_atom_type_oxidation_number
Cs1+ 1
U6+ 6
Si4+ 4
O2- -2
loop_
_atom_site_label
_atom_site_type_symbol
_atom_site_symmetry_multiplicity
_atom_site_Wyckoff_symbol
_atom_site_fract_x
_atom_site_fract_y
_atom_site_fract_z
_atom_site_U_iso_or_equiv
_atom_site_occupancy
Cs1 Cs1+ 4 e 0.18109(5) 0.02285(10) 0.44629(3) 0.03757(17) 1
Cs2 Cs1+ 4 e -0.31922(4) 0.47806(7) 0.47831(2) 0.02220(13) 1
U1 U6+ 2 a 0. 0.5 0.5 0.01032(10) 1
U2 U6+ 2 d 0.5 0. 0.5 0.00988(10) 1
Si1 Si4+ 4 e 0.29814(16) -0.2007(3) 0.29473(9) 0.0098(4) 1
Si2 Si4+ 4 e 0.46652(15) 0.6951(2) 0.38647(9) 0.0088(4) 1
Si3 Si4+ 4 e 0.28093(16) 0.1864(3) 0.29440(9) 0.0101(4) 1
Si4 Si4+ 4 e 0.06448(16) 0.6882(3) 0.31252(9) 0.0102(4) 1
Si5 Si4+ 4 e -0.31977(16) 0.7987(3) 0.33011(9) 0.0102(4) 1
Si6 Si4+ 4 e -0.11301(16) 0.1855(2) 0.40340(9) 0.0098(4) 1
Si7 Si4+ 4 e 0.44535(16) 0.3075(3) 0.38882(9) 0.0101(4) 1
Si8 Si4+ 4 e -0.10212(17) 0.8039(3) 0.39887(9) 0.0112(4) 1
Si9 Si4+ 4 e 0.66868(16) 0.1882(3) 0.33299(9) 0.0094(4) 1
Si10 Si4+ 4 e 0.03480(16) 0.3067(3) 0.30505(9) 0.0103(4) 1
O1 O2- 4 e 0.3114(5) -0.2235(7) 0.2276(2) 0.0191(12) 1
O2 O2- 4 e 0.4024(4) -0.2644(8) 0.3274(3) 0.0215(13) 1
O3 O2- 4 e 0.2765(6) -0.0083(7) 0.3087(3) 0.0261(14) 1
O4 O2- 4 e 0.1941(5) -0.3034(8) 0.3182(3) 0.0213(13) 1
O5 O2- 4 e 0.5959(4) 0.7096(7) 0.3727(2) 0.0144(11) 1
O6 O2- 4 e 0.4300(4) 0.8103(7) 0.4383(2) 0.0165(12) 1
O7 O2- 4 e 0.4444(4) 0.5034(7) 0.4047(2) 0.0168(11) 1
O8 O2- 4 e 0.3317(4) 0.2163(8) 0.2321(2) 0.0191(12) 1
O9 O2- 4 e 0.1603(5) 0.2581(9) 0.2978(3) 0.0305(15) 1
O10 O2- 4 e 0.3531(5) 0.2770(8) 0.3418(3) 0.0259(14) 1
O11 O2- 4 e 0.0309(5) 0.7645(9) 0.2519(3) 0.0310(16) 1
O12 O2- 4 e 0.0223(5) 0.5008(7) 0.3166(3) 0.0212(12) 1
O13 O2- 4 e 0.0127(4) 0.7950(7) 0.3635(2) 0.0147(11) 1
O14 O2- 4 e -0.1989(5) 0.7701(8) 0.3535(3) 0.0215(13) 1
O15 O2- 4 e -0.3469(5) 0.9931(7) 0.3245(3) 0.0249(13) 1
O16 O2- 4 e -0.1122(5) -0.0077(7) 0.4224(2) 0.0176(11) 1
O17 O2- 4 e -0.0149(4) 0.2052(7) 0.3583(3) 0.0194(12) 1
O18 O2- 4 e 0.7729(5) 0.2288(8) 0.3724(3) 0.0224(13) 1
O19 O2- 4 e -0.0987(5) 0.2951(7) 0.4589(2) 0.0179(12) 1
O20 O2- 4 e 0.4238(5) 0.2053(7) 0.4457(2) 0.0183(12) 1
O21 O2- 4 e 0.5637(5) 0.2684(8) 0.3615(3) 0.0269(14) 1
O22 O2- 4 e -0.1063(4) 0.6820(7) 0.4516(2) 0.0172(12) 1
O23 O2- 4 e 0.1021(4) 0.4925(7) 0.4451(2) 0.0178(11) 1
O24 O2- 4 e 0.6270(4) 0.0134(7) 0.4615(2) 0.0177(11) 1
loop_
_atom_site_aniso_label
_atom_site_aniso_type_symbol
_atom_site_aniso_U_11
_atom_site_aniso_U_22
_atom_site_aniso_U_33
_atom_site_aniso_U_12
_atom_site_aniso_U_13
_atom_site_aniso_U_23
Cs1 Cs1+ 0.0265(3) 0.0654(5) 0.0208(3) -0.0049(3) -0.0026(2) 0.0019(3)
Cs2 Cs1+ 0.0182(2) 0.0283(3) 0.0201(3) 0.0010(2) -0.00017(17) -0.0010(2)
U1 U6+ 0.01458(18) 0.00705(18) 0.00935(18) -0.00021(14) -0.00286(12)
-0.00040(15)
U2 U6+ 0.01371(17) 0.00693(18) 0.00900(18) -0.00033(14) 0.00026(12) 0.00024(15)
Si1 Si4+ 0.0115(9) 0.0096(9) 0.0084(10) 0.0012(7) 0.0000(7) -0.0003(7)
Si2 Si4+ 0.0075(8) 0.0082(9) 0.0108(10) -0.0017(7) -0.0013(7) -0.0006(7)
Si3 Si4+ 0.0132(9) 0.0082(9) 0.0090(10) -0.0010(7) -0.0004(7) 0.0005(7)
Si4 Si4+ 0.0087(9) 0.0106(10) 0.0113(10) 0.0003(7) -0.0007(7) 0.0017(8)
Si5 Si4+ 0.0105(9) 0.0100(9) 0.0099(10) -0.0002(7) -0.0005(7) -0.0005(8)
Si6 Si4+ 0.0105(9) 0.0083(9) 0.0107(10) -0.0020(7) -0.0018(7) 0.0001(7)
Si7 Si4+ 0.0105(9) 0.0083(9) 0.0114(10) 0.0001(7) -0.0003(7) 0.0000(7)
Si8 Si4+ 0.0151(9) 0.0072(9) 0.0112(10) 0.0003(7) -0.0008(8) 0.0009(7)
Si9 Si4+ 0.0107(9) 0.0089(9) 0.0086(10) 0.0012(7) -0.0009(7) 0.0010(7)
Si10 Si4+ 0.0083(9) 0.0106(9) 0.0120(10) -0.0003(7) 0.0004(7) -0.0010(8)
O1 O2- 0.025(3) 0.023(3) 0.009(3) 0.002(2) -0.001(2) -0.004(2)
O2 O2- 0.013(3) 0.032(3) 0.019(3) 0.000(2) -0.009(2) 0.003(3)
O3 O2- 0.050(4) 0.009(3) 0.019(3) 0.002(3) 0.009(3) -0.001(2)
O4 O2- 0.021(3) 0.021(3) 0.022(3) 0.002(2) 0.003(2) 0.007(2)
O5 O2- 0.009(2) 0.022(3) 0.012(3) 0.001(2) -0.0008(19) 0.002(2)
O6 O2- 0.015(3) 0.014(3) 0.020(3) -0.002(2) 0.002(2) -0.005(2)
O7 O2- 0.023(3) 0.011(3) 0.017(3) 0.000(2) 0.004(2) 0.001(2)
O8 O2- 0.016(3) 0.029(3) 0.012(3) 0.004(2) 0.002(2) 0.008(2)
O9 O2- 0.022(3) 0.032(4) 0.038(4) 0.008(3) 0.009(3) 0.001(3)
O10 O2- 0.026(3) 0.031(4) 0.020(3) -0.008(3) -0.010(2) -0.001(3)
O11 O2- 0.038(4) 0.036(4) 0.018(3) -0.003(3) -0.010(3) 0.012(3)
O12 O2- 0.026(3) 0.012(3) 0.026(3) -0.002(2) 0.000(2) -0.002(2)
O13 O2- 0.004(2) 0.017(3) 0.023(3) 0.001(2) 0.002(2) -0.004(2)
O14 O2- 0.016(3) 0.031(3) 0.018(3) 0.001(2) -0.005(2) 0.000(3)
O15 O2- 0.037(3) 0.011(3) 0.027(3) 0.000(3) -0.005(3) -0.001(3)
O16 O2- 0.027(3) 0.009(3) 0.017(3) -0.002(2) 0.005(2) 0.000(2)
O17 O2- 0.013(3) 0.022(3) 0.023(3) 0.000(2) 0.006(2) 0.006(2)
O18 O2- 0.028(3) 0.022(3) 0.017(3) 0.000(2) -0.013(2) 0.002(2)
O19 O2- 0.026(3) 0.015(3) 0.013(3) -0.003(2) -0.004(2) -0.007(2)
O20 O2- 0.027(3) 0.015(3) 0.013(3) 0.003(2) 0.003(2) 0.005(2)
O21 O2- 0.022(3) 0.028(4) 0.030(4) 0.005(3) 0.010(3) 0.005(3)
O22 O2- 0.021(3) 0.015(3) 0.015(3) 0.003(2) 0.000(2) 0.007(2)
O23 O2- 0.019(3) 0.020(3) 0.014(3) 0.001(2) -0.001(2) 0.001(2)
O24 O2- 0.014(2) 0.022(3) 0.017(3) -0.002(2) 0.005(2) 0.002(2)
#End of TTdata_262180-ICSD
#
