(C) 2022 by FIZ Karlsruhe - Leibniz Institute for Information Infrastructure.  All rights reserved.
data_65656-ICSD
_database_code_ICSD 65656
_audit_creation_date 1990-06-08
_chemical_name_common 'Potassium molybdenum diphosphate'
_chemical_formula_structural 'K Mo (P2 O7)'
_chemical_formula_sum 'K1 Mo1 O7 P2'
_chemical_name_structure_type KAlP2O7
_exptl_crystal_density_diffrn 3.36
_diffrn_ambient_temperature 296.
_citation_title

;
Structure of K Mo P2 O7, a molybdenum pyrophosphate containing isolated Mo(3+)
cations
;
loop_
_citation_id
_citation_journal_full
_citation_year
_citation_journal_volume
_citation_page_first
_citation_page_last
_citation_journal_id_ASTM
primary 'Acta Crystallographica, Section C: Crystal Structure Communications'
1989 45 673 675 ACSCEE
loop_
_citation_author_citation_id
_citation_author_name
primary 'Chen, J.J.'
primary 'Wang, C.-C.'
primary 'Lii, K.-H.'
_cell_length_a 7.376(1)
_cell_length_b 10.355(1)
_cell_length_c 8.350(4)
_cell_angle_alpha 90.
_cell_angle_beta 106.83(3)
_cell_angle_gamma 90.
_cell_volume 610.44
_cell_formula_units_Z 4
_space_group_name_H-M_alt 'P 1 21/c 1'
_space_group_IT_number 14
loop_
_space_group_symop_id
_space_group_symop_operation_xyz
1 'x, -y+1/2, z+1/2'
2 '-x, -y, -z'
3 '-x, y+1/2, -z+1/2'
4 'x, y, z'
loop_
_atom_type_symbol
_atom_type_oxidation_number
K1+ 1
Mo3+ 3
P5+ 5
O2- -2
loop_
_atom_site_label
_atom_site_type_symbol
_atom_site_symmetry_multiplicity
_atom_site_Wyckoff_symbol
_atom_site_fract_x
_atom_site_fract_y
_atom_site_fract_z
_atom_site_B_iso_or_equiv
_atom_site_occupancy
K1 K1+ 4 e 0.8227(1) 0.1766(1) 0.9431(1) . 1.
Mo1 Mo3+ 4 e 0.7663(1) -.3998(1) 0.7399(1) . 1.
P1 P5+ 4 e 0.9669(1) -.0990(1) 0.6738(1) . 1.
P2 P5+ 4 e 0.5552(1) -.3602(1) 0.3056(1) . 1.
O1 O2- 4 e 0.9244(3) -.2309(2) 0.7521(3) . 1.
O2 O2- 4 e 0.6783(4) -.3923(3) 0.4781(3) . 1.
O3 O2- 4 e 0.6422(3) -.5836(2) 0.7361(3) . 1.
O4 O2- 4 e 0.8657(4) -.4060(3) 0.9956(3) . 1.
O5 O2- 4 e 0.5405(3) -.2822(2) 0.7612(3) . 1.
O6 O2- 4 e 0.0087(3) -.4967(2) 0.7178(3) . 1.
O7 O2- 4 e 0.6560(3) -.4298(2) 0.1813(3) . 1.
loop_
_atom_site_aniso_label
_atom_site_aniso_type_symbol
_atom_site_aniso_U_11
_atom_site_aniso_U_22
_atom_site_aniso_U_33
_atom_site_aniso_U_12
_atom_site_aniso_U_13
_atom_site_aniso_U_23
K1 K1+ 0.0176(4) 0.0253(4) 0.0162(4) 0.0037(3) 0.0018(3) -.0002(3)
Mo1 Mo3+ 0.00488(13) 0.00388(14) 0.00512(14) 0.00020(9) 0.00182(9) 0.00002(9)
P1 P5+ 0.0066(4) 0.0063(4) 0.0062(4) -.0019(3) 0.0023(3) -.0001(3)
P2 P5+ 0.0059(4) 0.0059(4) 0.0074(4) -.0005(3) 0.0022(3) 0.0004(3)
O1 O2- 0.0078(11) 0.0057(11) 0.0185(12) -.0014(9) 0.0027(9) 0.0010(9)
O2 O2- 0.0193(13) 0.0208(14) 0.0059(11) 0.0006(11) 0.0005(10) 0.0031(10)
O3 O2- 0.0087(11) 0.0065(11) 0.0218(13) -.0023(9) 0.0064(10) 0.0004(10)
O4 O2- 0.0161(12) 0.0273(15) 0.0064(11) 0.0084(11) 0.0045(9) 0.0033(10)
O5 O2- 0.0087(11) 0.0059(11) 0.0185(12) 0.0011(9) 0.0054(10) -.0013(9)
O6 O2- 0.0084(10) 0.0071(11) 0.0105(11) 0.0043(9) 0.0035(9) 0.0021(9)
O7 O2- 0.0077(11) 0.0112(11) 0.0114(11) -.0013(9) 0.0041(9) -.0042(9)
#End of TTdata_65656-ICSD
#
