(C) 2022 by FIZ Karlsruhe - Leibniz Institute for Information Infrastructure.  All rights reserved.
data_426266-ICSD
_database_code_ICSD 426266
_audit_creation_date 2015-02-01
_chemical_name_common 'Pentasodium hexadecaoxo-dihydroxo-pentauranate(V,VI)'
_chemical_formula_structural 'Na5 (U5 O16 (O H)2)'
_chemical_formula_sum 'H2 Na5 O18 U5'
_exptl_crystal_density_diffrn 6.51
_diffrn_ambient_temperature 296.
_citation_title

;
Mixed-valence uranium(V,VI) and uranyl oxyhydroxides synthesized under
high-temperature, high-pressure hydrothermal conditions: Na5[U5O16(OH)2] and
Na5[U5O17(OH)]
;
loop_
_citation_id
_citation_journal_full
_citation_year
_citation_journal_volume
_citation_page_first
_citation_page_last
_citation_journal_id_ASTM
primary 'Inorganic Chemistry' 2013 52 9172 9174 INOCAJ
loop_
_citation_author_citation_id
_citation_author_name
primary 'Liu, Hsin-Kuang'
primary 'Lii, Kwang-Hwa'
_cell_length_a 12.2675(4)
_cell_length_b 19.7275(6)
_cell_length_c 6.8643(6)
_cell_angle_alpha 90.
_cell_angle_beta 101.4140(10)
_cell_angle_gamma 90.
_cell_volume 1628.35
_cell_formula_units_Z 4
_space_group_name_H-M_alt 'C 1 2/c 1'
_space_group_IT_number 15
loop_
_space_group_symop_id
_space_group_symop_operation_xyz
1 'x, -y, z+1/2'
2 '-x, -y, -z'
3 '-x, y, -z+1/2'
4 'x, y, z'
5 'x+1/2, -y+1/2, z+1/2'
6 '-x+1/2, -y+1/2, -z'
7 '-x+1/2, y+1/2, -z+1/2'
8 'x+1/2, y+1/2, z'
loop_
_atom_type_symbol
_atom_type_oxidation_number
Na1+ 1
U6+ 6
U5+ 5
O2- -2
H1+ 1
loop_
_atom_site_label
_atom_site_type_symbol
_atom_site_symmetry_multiplicity
_atom_site_Wyckoff_symbol
_atom_site_fract_x
_atom_site_fract_y
_atom_site_fract_z
_atom_site_U_iso_or_equiv
_atom_site_occupancy
Na1 Na1+ 4 e 0.5 0.0516(3) 0.75 0.0232(16) 1
Na2 Na1+ 4 e 0. 0.0572(3) 0.25 0.0247(16) 1
Na3 Na1+ 4 e 0. 0.1318(3) 0.75 0.0225(13) 1
Na4 Na1+ 4 e 0. 0.2456(3) 0.25 0.046(2) 1
Na5 Na1+ 8 f 0.5218(8) 0.1286(4) 0.1972(14) 0.029(2) 0.5
U1 U6+ 8 f 0.75495(3) 0.152743(14) 0.96552(7) 0.00701(15) 1
U2 U6+ 8 f 0.75141(2) 0.04059(2) 0.50515(5) 0.00744(15) 1
U3 U5+ 4 c 0.75 0.25 0.5 0.00688(16) 1
O1 O2- 8 f 0.9067(7) 0.1521(3) 0.0197(14) 0.0187(18) 1
O2 O2- 8 f 0.7757(6) 0.1523(2) 0.6095(11) 0.0149(16) 1
O3 O2- 8 f 0.6033(7) 0.1542(3) 0.9130(14) 0.0210(19) 1
O4 O2- 8 f 0.7366(6) 0.2642(3) 0.8038(9) 0.0136(14) 1
O5 O2- 8 f 0.7383(6) 0.0513(3) 0.8228(10) 0.0179(17) 1
O6 O2- 8 f 0.7578(5) 0.0767(3) 1.2019(9) 0.0167(15) 1
O7 O2- 8 f 0.5982(7) 0.0464(4) 0.4497(12) 0.0216(18) 1
O8 O2- 8 f 0.9053(6) 0.0352(3) 0.5630(13) 0.0191(17) 1
O9 O2- 8 f 0.9304(6) 0.2691(4) 0.5755(13) 0.0309(19) 1
loop_
_atom_site_aniso_label
_atom_site_aniso_type_symbol
_atom_site_aniso_U_11
_atom_site_aniso_U_22
_atom_site_aniso_U_33
_atom_site_aniso_U_12
_atom_site_aniso_U_13
_atom_site_aniso_U_23
Na1 Na1+ 0.021(4) 0.018(3) 0.030(4) 0. 0.003(3) 0.
Na2 Na1+ 0.033(4) 0.017(3) 0.021(3) 0. -0.003(3) 0.
Na3 Na1+ 0.021(3) 0.029(3) 0.020(3) 0. 0.010(3) 0.
Na4 Na1+ 0.042(5) 0.022(4) 0.061(5) 0. -0.018(4) 0.
Na5 Na1+ 0.026(6) 0.025(4) 0.032(6) -0.001(4) -0.001(4) 0.006(4)
U1 U6+ 0.0107(2) 0.0046(2) 0.0059(2) 0.00031(10) 0.00215(15) -0.00025(10)
U2 U6+ 0.0110(2) 0.0060(2) 0.0055(2) 0.00027(10) 0.00199(15) -0.00073(10)
U3 U5+ 0.0115(3) 0.0044(3) 0.0049(3) 0.00012(14) 0.00202(19) 0.00024(14)
O1 O2- 0.022(4) 0.018(4) 0.017(5) 0.002(3) 0.004(4) 0.000(2)
O2 O2- 0.029(4) 0.005(3) 0.013(4) 0.003(2) 0.007(3) 0.000(2)
O3 O2- 0.017(4) 0.021(4) 0.025(5) -0.002(3) 0.005(4) 0.001(3)
O4 O2- 0.027(4) 0.008(2) 0.006(3) 0.002(3) 0.003(3) 0.001(2)
O5 O2- 0.040(5) 0.007(3) 0.007(3) 0.001(3) 0.003(3) 0.001(2)
O6 O2- 0.025(4) 0.018(3) 0.006(3) -0.004(3) 0.000(3) 0.004(2)
O7 O2- 0.021(5) 0.026(4) 0.020(4) -0.002(3) 0.008(3) -0.001(3)
O8 O2- 0.016(4) 0.014(3) 0.026(4) -0.001(3) 0.003(3) -0.002(3)
O9 O2- 0.020(5) 0.040(4) 0.033(5) -0.007(4) 0.006(4) -0.008(4)
#End of TTdata_426266-ICSD
#
