(C) 2022 by FIZ Karlsruhe - Leibniz Institute for Information Infrastructure.  All rights reserved.
data_201981-ICSD
_database_code_ICSD 201981
_audit_creation_date 1988-12-19
_chemical_name_common 'Zinc molybdenum oxide (1/8/10)'
_chemical_formula_structural 'Zn Mo8 O10'
_chemical_formula_sum 'Mo8 O10 Zn1'
_chemical_name_structure_type LiMo8O10
_exptl_crystal_density_diffrn 7.64
_citation_title

;
Synthesis and structure of ternary molybdenum oxides M Mo8 O10 (M=Li or Zn)
having orthogonal nonintersecting octahedral cluster chains
;
loop_
_citation_id
_citation_journal_full
_citation_year
_citation_journal_volume
_citation_page_first
_citation_page_last
_citation_journal_id_ASTM
primary 'Journal of Solid State Chemistry' 1986 64 347 358 JSSCBI
loop_
_citation_author_citation_id
_citation_author_name
primary 'Lii, K.-H.'
primary 'McCarley, R.E.'
primary 'Kim, S.'
primary 'Jacobson, R.A.'
_cell_length_a 5.8961(4)
_cell_length_b 5.8961(4)
_cell_length_c 24.840(3)
_cell_angle_alpha 90.
_cell_angle_beta 90.
_cell_angle_gamma 90.
_cell_volume 863.54
_cell_formula_units_Z 4
_space_group_name_H-M_alt 'I 41 m d'
_space_group_IT_number 109
loop_
_space_group_symop_id
_space_group_symop_operation_xyz
1 'y, -x+1/2, z+1/4'
2 '-y, x+1/2, z+1/4'
3 'x, -y, z'
4 '-x, y, z'
5 '-y, -x+1/2, z+1/4'
6 'y, x+1/2, z+1/4'
7 '-x, -y, z'
8 'x, y, z'
9 'y+1/2, -x, z+3/4'
10 '-y+1/2, x, z+3/4'
11 'x+1/2, -y+1/2, z+1/2'
12 '-x+1/2, y+1/2, z+1/2'
13 '-y+1/2, -x, z+3/4'
14 'y+1/2, x, z+3/4'
15 '-x+1/2, -y+1/2, z+1/2'
16 'x+1/2, y+1/2, z+1/2'
loop_
_atom_type_symbol
_atom_type_oxidation_number
Mo2+ 2.25
O2- -2
Zn2+ 2
loop_
_atom_site_label
_atom_site_type_symbol
_atom_site_symmetry_multiplicity
_atom_site_Wyckoff_symbol
_atom_site_fract_x
_atom_site_fract_y
_atom_site_fract_z
_atom_site_B_iso_or_equiv
_atom_site_occupancy
Mo1 Mo2+ 8 b 0.5 0.2192(1) 0 0.23 1.
Mo2 Mo2+ 8 b 0 0.2389(1) 0.00451(4) 0.25 1.
Mo3 Mo2+ 8 b 0 0.2715(1) 0.32858(5) 0.22 1.
Mo4 Mo2+ 8 b 0 0.2752(2) 0.17670(5) 0.22 1.
O1 O2- 8 b 0.5 0.244(2) 0.2538(7) 0.5 1.
O2 O2- 8 b 0.5 0.226(2) 0.0814(4) 0.39 1.
O3 O2- 8 b 0.5 0.238(1) 0.4236(5) 0.3 1.
O4 O2- 8 b 0 0.266(2) 0.0876(7) 0.36 1.
O5 O2- 8 b 0 0.276(2) 0.4168(7) 0.45 1.
Zn1 Zn2+ 4 a 0.5 0.5 0.12030(9) 0.44 1.
#End of TTdata_201981-ICSD
#
