(C) 2022 by FIZ Karlsruhe - Leibniz Institute for Information Infrastructure.  All rights reserved.
data_432169-ICSD
_database_code_ICSD 432169
_audit_creation_date 2020-02-01
_chemical_name_common 'Lithium phosphorus(V)sulfide iodide'
_chemical_formula_structural 'Li4.117 P S4 I'
_chemical_formula_sum 'I1 Li4.117 P1 S4'
_exptl_crystal_density_diffrn 2.45
_diffrn_ambient_temperature 298.
_citation_title

;
Li$_4$PS$_4$I: A Li$^+$ superionic conductor synthesized by a solvent-based
soft chemistry approach
;
loop_
_citation_id
_citation_journal_full
_citation_year
_citation_journal_volume
_citation_page_first
_citation_page_last
_citation_journal_id_ASTM
primary 'Chemistry of Materials' 2017 29 1830 1835 CMATEX
loop_
_citation_author_citation_id
_citation_author_name
primary 'Sedlmaier, Stefan J.'
primary 'Indris, Sylvio'
primary 'Dietrich, Christian'
primary 'Yavuz, Murat'
primary 'Dräger, Christoph'
primary 'von Seggern, Falk'
primary 'Sommer, Heino'
primary 'Janek, Jürgen'
_cell_length_a 8.48285(12)
_cell_length_b 8.48285(12)
_cell_length_c 5.93013(11)
_cell_angle_alpha 90.
_cell_angle_beta 90.
_cell_angle_gamma 90.
_cell_volume 426.72
_cell_formula_units_Z 2
_space_group_name_H-M_alt 'P 4/n m m Z'
_space_group_IT_number 129
loop_
_space_group_symop_id
_space_group_symop_operation_xyz
1 'y+1/2, x+1/2, -z'
2 '-y, x+1/2, -z'
3 'y+1/2, -x, -z'
4 '-y, -x, -z'
5 'x+1/2, y+1/2, -z'
6 '-x, y+1/2, -z'
7 'x+1/2, -y, -z'
8 '-x, -y, -z'
9 '-y+1/2, -x+1/2, z'
10 'y, -x+1/2, z'
11 '-y+1/2, x, z'
12 'y, x, z'
13 '-x+1/2, -y+1/2, z'
14 'x, -y+1/2, z'
15 '-x+1/2, y, z'
16 'x, y, z'
loop_
_atom_type_symbol
_atom_type_oxidation_number
I1- -1
S2- -2
P5+ 5
Li1+ 1
loop_
_atom_site_label
_atom_site_type_symbol
_atom_site_symmetry_multiplicity
_atom_site_Wyckoff_symbol
_atom_site_fract_x
_atom_site_fract_y
_atom_site_fract_z
_atom_site_B_iso_or_equiv
_atom_site_occupancy
I1 I1- 2 c 0.75 0.75 0.15298(11) 2.00020(1951) 1
S1 S2- 8 i 0.25 0.94412(9) 0.29674(17) 1.61292(2521) 1
P1 P5+ 2 b 0.75 0.25 0.5 1.62720(4859) 1
Li1 Li1+ 2 c 0.75 0.75 0.59436(345) 2.46862(40852) 0.67861(2616)
Li2 Li1+ 2 a 0.25 0.75 0 2.46862(40852) 0.57637(3494)
Li3 Li1+ 8 j 0.45392(168) 0.45392(168) 0.58471(289) 2.46862(40852) 0.37662(1340)
Li4 Li1+ 4 d 0 0 0 2.46862(40852) 0.52716(2141)
Li5 Li1+ 8 i 0.75 0.11567(1224) 0.10681(1637) 2.46862(40852) 0.07530(1126)
#End of TTdata_432169-ICSD
#
