(C) 2022 by FIZ Karlsruhe - Leibniz Institute for Information Infrastructure.  All rights reserved.
data_80553-ICSD
_database_code_ICSD 80553
_audit_creation_date 1997-05-13
_chemical_name_common 'Potassium phyllo-antimono(III)dimolybdate'
_chemical_formula_structural 'K (Sb Mo2 O8)'
_chemical_formula_sum 'K1 Mo2 O8 Sb1'
_exptl_crystal_density_diffrn 4.45
_citation_title
'A new antimony(III) molybdate with a layer structure: K Sb Mo2 O8'
loop_
_citation_id
_citation_journal_full
_citation_year
_citation_journal_volume
_citation_page_first
_citation_page_last
_citation_journal_id_ASTM
primary 'Journal of Solid State Chemistry' 1990 86 188 194 JSSCBI
loop_
_citation_author_citation_id
_citation_author_name
primary 'Lii, K.-H.'
primary 'Chueh, B.R.'
primary 'Wang, S.-L.'
_cell_length_a 5.015(2)
_cell_length_b 7.4216(6)
_cell_length_c 10.304(1)
_cell_angle_alpha 90.45(1)
_cell_angle_beta 100.29(2)
_cell_angle_gamma 107.79(1)
_cell_volume 358.5
_cell_formula_units_Z 2
_space_group_name_H-M_alt 'P -1'
_space_group_IT_number 2
loop_
_space_group_symop_id
_space_group_symop_operation_xyz
1 '-x, -y, -z'
2 'x, y, z'
loop_
_atom_type_symbol
_atom_type_oxidation_number
K1+ 1
Sb3+ 3
Mo6+ 6
O2- -2
loop_
_atom_site_label
_atom_site_type_symbol
_atom_site_symmetry_multiplicity
_atom_site_Wyckoff_symbol
_atom_site_fract_x
_atom_site_fract_y
_atom_site_fract_z
_atom_site_B_iso_or_equiv
_atom_site_occupancy
K1 K1+ 2 i 0.40273(22) 0.03602(15) 0.31144(9) . 1.
Sb1 Sb3+ 2 i 0.05281(6) 0.47011(4) 0.19223(3) . 1.
Mo1 Mo6+ 2 i 0.21191(7) 0.36463(5) 0.54004(3) . 1.
Mo2 Mo6+ 2 i 0.35783(8) 0.24446(5) 0.92693(4) . 1.
O1 O2- 2 i 0.3589(6) 0.7079(4) 0.1738(3) . 1.
O2 O2- 2 i 0.3740(6) 0.4695(5) 0.3862(3) . 1.
O3 O2- 2 i 0.2655(7) 0.1493(5) 0.5387(3) . 1.
O4 O2- 2 i 0.1351(7) 0.3793(5) 0.7127(3) . 1.
O5 O2- 2 i 0.1980(7) 0.4275(5) 0.9662(3) . 1.
O6 O2- 2 i 0.5079(7) 0.8100(5) 0.9192(3) . 1.
O7 O2- 2 i 0.8950(7) 0.9582(5) 0.1449(3) . 1.
O8 O2- 2 i 0.1336(6) 0.6741(5) 0.5524(3) . 1.
loop_
_atom_site_aniso_label
_atom_site_aniso_type_symbol
_atom_site_aniso_U_11
_atom_site_aniso_U_22
_atom_site_aniso_U_33
_atom_site_aniso_U_12
_atom_site_aniso_U_13
_atom_site_aniso_U_23
K1 K1+ 0.0241(5) 0.0205(5) 0.0171(5) 0.0084(4) 0.0001(4) -.0008(4)
Sb1 Sb3+ 0.0100(2) 0.0114(2) 0.0173(2) 0.0049(1) 0.0042(1) 0.0020(1)
Mo1 Mo6+ 0.0067(2) 0.0100(2) 0.0100(2) 0.0035(1) 0.0020(1) 0.0018(1)
Mo2 Mo6+ 0.0095(2) 0.0130(2) 0.0141(2) 0.0056(2) 0.0042(1) 0.0024(1)
O1 O2- 0.0095(14) 0.0130(14) 0.0143(14) 0.0047(12) 0.0016(11) 0.0002(11)
O2 O2- 0.0113(14) 0.0194(16) 0.0103(13) 0.0052(12) 0.0001(11) 0.0004(12)
O3 O2- 0.0171(15) 0.0159(15) 0.0188(15) 0.0092(13) 0.0028(12) 0.0024(12)
O4 O2- 0.0210(17) 0.0224(16) 0.0129(14) 0.0144(14) 0.0100(12) 0.0050(12)
O5 O2- 0.0132(14) 0.0192(16) 0.0122(14) 0.0105(13) 0.0008(11) -.0001(12)
O6 O2- 0.0163(16) 0.0246(18) 0.0220(16) 0.0078(14) 0.0055(13) 0.0079(14)
O7 O2- 0.0143(16) 0.0168(16) 0.0295(17) 0.0036(13) 0.0005(14) 0.0021(14)
O8 O2- 0.0080(14) 0.0184(16) 0.0201(15) 0.0046(12) -.0003(12) -.0005(12)
#End of TTdata_80553-ICSD
#
