(C) 2022 by FIZ Karlsruhe - Leibniz Institute for Information Infrastructure.  All rights reserved.
data_74044-ICSD
_database_code_ICSD 74044
_audit_creation_date 1995-01-10
_audit_update_record 2015-02-01
_chemical_name_common
'Calcium iron tetrairon(III) pentakis(phosphate) hydroxide hydrate'
_chemical_formula_structural 'Ca Fe5 (P O4)5 (O H) (H2 O)'
_chemical_formula_sum 'H3 Ca1 Fe5 O22 P5'
_chemical_name_structure_type CaFe5(PO4)5OHH2O
_exptl_crystal_density_diffrn 3.57
_diffrn_ambient_temperature 296.
_citation_title

;
Hydrothermal synthesis and structural characterization of mixed- valence iron
phosphates: AFe5(PO4)5(OH).H2O (A=Ca, Sr)
;
loop_
_citation_id
_citation_journal_full
_citation_year
_citation_journal_volume
_citation_page_first
_citation_page_last
_citation_journal_id_ASTM
primary 'Inorganic Chemistry' 1993 32 4368 4372 INOCAJ
loop_
_citation_author_citation_id
_citation_author_name
primary 'Dvoncova, E.'
primary 'Lii, K.-H.'
_cell_length_a 6.404(1)
_cell_length_b 7.866(1)
_cell_length_c 15.694(2)
_cell_angle_alpha 85.00(1)
_cell_angle_beta 88.79(1)
_cell_angle_gamma 78.22(1)
_cell_volume 770.97
_cell_formula_units_Z 2
_space_group_name_H-M_alt 'P -1'
_space_group_IT_number 2
loop_
_space_group_symop_id
_space_group_symop_operation_xyz
1 '-x, -y, -z'
2 'x, y, z'
loop_
_atom_type_symbol
_atom_type_oxidation_number
Ca2+ 2
Fe3+ 3
Fe2+ 2
Fe3+ 3
P5+ 5
O2- -2
H1+ 1
loop_
_atom_site_label
_atom_site_type_symbol
_atom_site_symmetry_multiplicity
_atom_site_Wyckoff_symbol
_atom_site_fract_x
_atom_site_fract_y
_atom_site_fract_z
_atom_site_U_iso_or_equiv
_atom_site_occupancy
Ca1 Ca2+ 2 i 0.0228(2) 0.3974(1) 0.14159(7) 0.0112(3) 1.
Fe1 Fe3+ 2 i 0.0398(1) 0.7918(1) 0.48662(5) 0.0066(2) 1.
Fe2 Fe2+ 2 i 0.4025(1) 0.5943(1) 0.62443(5) 0.0095(2) 1.
Fe3 Fe3+ 2 i 0.3926(1) 0.1294(1) 0.29002(5) 0.0067(2) 1.
Fe4 Fe3+ 2 i 0.2787(1) 0.2785(1) 0.75078(5) 0.0066(2) 1.
Fe5 Fe3+ 2 i 0.2857(1) 0.7677(1) 0.00548(5) 0.0068(2) 1.
P1 P5+ 2 i 0.0848(2) 0.9480(2) 0.68091(8) 0.0060(4) 1.
P2 P5+ 2 i 0.0832(2) 0.4718(2) 0.36061(8) 0.0051(4) 1.
P3 P5+ 2 i 0.5345(2) 0.7984(2) 0.43632(8) 0.0059(4) 1.
P4 P5+ 2 i 0.7843(2) 0.8116(2) 0.04670(8) 0.0059(4) 1.
P5 P5+ 2 i 0.4858(2) 0.4418(2) 0.14925(8) 0.0062(4) 1.
O1 O2- 2 i 0.0139(6) 0.9791(5) 0.5845(2) 0.0080(11) 1.
O2 O2- 2 i -.0727(6) 0.3766(5) 0.4127(2) 0.0090(11) 1.
O3 O2- 2 i 0.1215(6) 0.6252(5) 0.4041(2) 0.0114(11) 1.
O4 O2- 2 i 0.6266(6) 0.2560(5) 0.4980(2) 0.0087(11) 1.
O5 O2- 2 i 0.3022(6) 0.8190(5) 0.6889(2) 0.0088(11) 1.
O6 O2- 2 i 0.3010(6) 0.3483(5) 0.3504(2) 0.0071(10) 1.
O7 O2- 2 i 0.4166(6) 0.3338(5) 0.6341(2) 0.0089(11) 1.
O8 O2- 2 i -.0833(6) 0.8678(5) 0.7330(2) 0.0086(11) 1.
O9 O2- 2 i 0.5619(6) 0.0264(5) 0.6096(2) 0.0111(11) 1.
O10 O2- 2 i 0.3787(6) 0.2903(5) 0.1844(2) 0.0079(11) 1.
O11 O2- 2 i 0.4963(6) 0.0644(5) 0.7857(2) 0.0107(11) 1.
O12 O2- 2 i -.0209(6) 0.5262(5) 0.2725(2) 0.0079(11) 1.
O13 O2- 2 i 0.1633(6) 0.2978(5) 0.8672(2) 0.0107(11) 1.
O14 O2- 2 i 0.5535(6) 0.5346(5) 0.2224(2) 0.0101(11) 1.
O15 O2- 2 i 0.1037(6) 0.1196(5) 0.7145(2) 0.0114(11) 1.
O16 O2- 2 i 0.7411(6) 0.7963(5) 0.4822(2) 0.0113(11) 1.
O17 O2- 2 i 0.5820(6) 0.7793(5) 0.0089(2) 0.0123(12) 1.
O18 O2- 2 i 0.2322(6) 0.9978(5) -.0644(2) 0.0111(11) 1.
O19 O2- 2 i -.0262(6) 0.7494(5) -.0129(2) 0.0096(11) 1.
O20 O2- 2 i 0.1973(7) 0.9078(6) 0.1106(3) 0.0166(13) 1.
O21 O2- 2 i 0.3151(6) 0.5591(5) 0.0908(2) 0.0109(11) 1.
O22 O2- 2 i 0.3145(6) 0.6334(5) -.0978(2) 0.0091(11) 1.
#End of TTdata_74044-ICSD
#
