(C) 2022 by FIZ Karlsruhe - Leibniz Institute for Information Infrastructure.  All rights reserved.
data_249479-ICSD
_database_code_ICSD 249479
_audit_creation_date 2008-08-01
_chemical_name_common 'Tetrapotassium diindium henicosaoxooctasilicate'
_chemical_formula_structural 'K4 In2 Si8 O21'
_chemical_formula_sum 'In2 K4 O21 Si8'
_exptl_crystal_density_diffrn 3.11
_diffrn_ambient_temperature 23.
_citation_title

;
Flux synthesis, crystal structure, and solid-state NMR spectroscopy of two
indium silicates containing varied In-O coordination geometries
;
loop_
_citation_id
_citation_journal_full
_citation_year
_citation_journal_volume
_citation_page_first
_citation_page_last
_citation_journal_id_ASTM
primary 'Inorganic Chemistry' 2007 46 3301 3305 INOCAJ
loop_
_citation_author_citation_id
_citation_author_name
primary 'Hung Lingi'
primary 'Wang Sue Lein'
primary 'Kao Hsienming'
primary 'Lii Kwanghwa'
_cell_length_a 8.4041(3)
_cell_length_b 11.4919(4)
_cell_length_c 10.4841(3)
_cell_angle_alpha 90.
_cell_angle_beta 90.478(2)
_cell_angle_gamma 90.
_cell_volume 1012.51
_cell_formula_units_Z 2
_space_group_name_H-M_alt 'P 1 21/n 1'
_space_group_IT_number 14
loop_
_space_group_symop_id
_space_group_symop_operation_xyz
1 '-x+1/2, y+1/2, -z+1/2'
2 '-x, -y, -z'
3 'x+1/2, -y+1/2, z+1/2'
4 'x, y, z'
loop_
_atom_type_symbol
_atom_type_oxidation_number
K1+ 1
In3+ 3
Si4+ 4
O2- -2
loop_
_atom_site_label
_atom_site_type_symbol
_atom_site_symmetry_multiplicity
_atom_site_Wyckoff_symbol
_atom_site_fract_x
_atom_site_fract_y
_atom_site_fract_z
_atom_site_U_iso_or_equiv
_atom_site_occupancy
K1 K1+ 4 e 0.01710(7) 0.35964(6) 0.79671(6) 0.02382(14) 1
K2 K1+ 4 e 0.50637(6) 0.53249(5) 0.30701(5) 0.01608(12) 1
In1 In3+ 4 e 0.198232(19) 0.333917(15) 0.460059(15) 0.00944(6) 1
Si1 Si4+ 4 e 0.32679(8) 0.17341(6) 0.71150(6) 0.00819(14) 1
Si2 Si4+ 4 e 0.18082(8) 0.04282(6) 0.49559(6) 0.00957(14) 1
Si3 Si4+ 4 e 0.18982(7) 0.33713(6) 0.16524(6) 0.00839(14) 1
Si4 Si4+ 4 e -0.20683(7) 0.36803(6) 0.49728(6) 0.00795(14) 1
O1 O2- 4 e 0.2994(2) 0.29107(15) 0.63738(16) 0.0136(4) 1
O2 O2- 4 e 0.2404(2) 0.06158(15) 0.64227(15) 0.0144(4) 1
O3 O2- 4 e 0.5144(2) 0.13990(15) 0.72796(17) 0.0161(4) 1
O4 O2- 4 e 0.2513(2) 0.18187(14) 0.85322(16) 0.0135(4) 1
O5 O2- 4 e 0.2025(3) 0.15428(15) 0.40999(18) 0.0233(5) 1
O6 O2- 2 b 0. 0. 0.5 0.0378(8) 1
O7 O2- 4 e 0.2892(2) -0.06340(16) 0.44366(17) 0.0211(4) 1
O8 O2- 4 e 0.18391(19) 0.21330(15) 0.09250(16) 0.0129(4) 1
O9 O2- 4 e 0.3136(2) 0.34651(14) 0.27954(16) 0.0131(4) 1
O10 O2- 4 e -0.0247(2) 0.35008(16) 0.53378(16) 0.0165(4) 1
O11 O2- 4 e -0.27587(19) 0.49616(15) 0.50827(16) 0.0149(4) 1
loop_
_atom_site_aniso_label
_atom_site_aniso_type_symbol
_atom_site_aniso_U_11
_atom_site_aniso_U_22
_atom_site_aniso_U_33
_atom_site_aniso_U_12
_atom_site_aniso_U_13
_atom_site_aniso_U_23
K1 K1+ 0.0221(3) 0.0260(4) 0.0234(3) 0.0012(2) 0.0023(2) -0.0017(3)
K2 K1+ 0.0140(3) 0.0160(3) 0.0183(3) -0.0035(2) 0.0023(2) -0.0040(2)
In1 In3+ 0.01104(9) 0.00853(10) 0.00877(10) 0.00016(6) 0.00035(6) 0.00072(7)
Si1 Si4+ 0.0092(3) 0.0076(3) 0.0078(3) -0.0003(2) 0.0000(2) 0.0007(3)
Si2 Si4+ 0.0110(3) 0.0079(3) 0.0098(3) -0.0010(2) 0.0001(2) -0.0015(3)
Si3 Si4+ 0.0093(3) 0.0074(3) 0.0085(3) -0.0012(2) 0.0012(2) -0.0007(3)
Si4 Si4+ 0.0085(3) 0.0080(3) 0.0073(3) -0.0004(2) 0.0000(2) 0.0006(3)
O1 O2- 0.0193(9) 0.0095(9) 0.0120(9) -0.0021(7) -0.0056(7) 0.0005(7)
O2 O2- 0.0242(9) 0.0096(9) 0.0095(8) -0.0047(7) -0.0002(7) 0.0006(7)
O3 O2- 0.0114(8) 0.0174(10) 0.0197(10) 0.0017(7) 0.0040(7) 0.0088(8)
O4 O2- 0.0133(8) 0.0164(10) 0.0108(9) 0.0033(7) 0.0013(7) 0.0002(7)
O5 O2- 0.0475(13) 0.0113(10) 0.0111(9) 0.0004(9) 0.0000(9) -0.0003(8)
O6 O2- 0.0124(14) 0.048(2) 0.053(2) -0.0099(14) -0.0010(13) -0.0084(17)
O7 O2- 0.0287(11) 0.0165(10) 0.0181(10) 0.0071(8) -0.0005(8) -0.0078(8)
O8 O2- 0.0148(8) 0.0122(9) 0.0118(9) -0.0007(7) 0.0035(7) -0.0048(7)
O9 O2- 0.0128(8) 0.0169(10) 0.0095(9) -0.0038(7) -0.0005(6) -0.0014(7)
O10 O2- 0.0103(8) 0.0253(11) 0.0139(10) -0.0001(7) -0.0020(7) 0.0004(8)
O11 O2- 0.0169(9) 0.0082(9) 0.0197(9) 0.0005(7) 0.0019(7) 0.0005(8)
#End of TTdata_249479-ICSD
#
