(C) 2022 by FIZ Karlsruhe - Leibniz Institute for Information Infrastructure.  All rights reserved.
data_759316-ICSD
_database_code_ICSD 759316
_audit_creation_date 2020-02-01
_chemical_name_common 'Dibarium pentaborate fluoride hemihydrate'
_chemical_formula_structural 'Ba2 B5 O9 F (H2 O)0.5'
_chemical_formula_sum 'H1 B5 Ba2 F1 O9.5'
_exptl_crystal_density_diffrn 3.86
_diffrn_ambient_temperature 296.
_citation_title

;
High-temperature, high-pressure hydrothermal synthesis and characterization of
an acentric borate fluoride. Ba2B5O9F.0.5H2O
;
loop_
_citation_id
_citation_journal_full
_citation_year
_citation_journal_volume
_citation_page_first
_citation_page_last
_citation_journal_id_ASTM
primary 'Inorganic Chemistry' 2018 57 7239 7243 INOCAJ
loop_
_citation_author_citation_id
_citation_author_name
primary 'Hsieh, Pin-Hsun'
primary 'Tsai, Cheng-En'
primary 'Chang, Bor-Chen'
primary 'Lii, Kwang-Hwa'
_cell_length_a 11.5259(7)
_cell_length_b 11.5259(7)
_cell_length_c 6.4812(4)
_cell_angle_alpha 90.
_cell_angle_beta 90.
_cell_angle_gamma 90.
_cell_volume 861.
_cell_formula_units_Z 4
_space_group_name_H-M_alt 'P -4 n 2'
_space_group_IT_number 118
loop_
_space_group_symop_id
_space_group_symop_operation_xyz
1 '-y+1/2, -x+1/2, -z+1/2'
2 'y, -x, -z'
3 'x+1/2, -y+1/2, z+1/2'
4 '-x, -y, z'
5 'y+1/2, x+1/2, -z+1/2'
6 '-y, x, -z'
7 '-x+1/2, y+1/2, z+1/2'
8 'x, y, z'
loop_
_atom_type_symbol
_atom_type_oxidation_number
Ba2+ 2
F1- -1
B3+ 3
O2- -2
H1+ 1
loop_
_atom_site_label
_atom_site_type_symbol
_atom_site_symmetry_multiplicity
_atom_site_Wyckoff_symbol
_atom_site_fract_x
_atom_site_fract_y
_atom_site_fract_z
_atom_site_U_iso_or_equiv
_atom_site_occupancy
Ba1 Ba2+ 8 i 0.184889(10) 0.959654(9) 0.76808(2) 0.00986(4) 1
F1 F1- 2 a 0. 0. 0. 0.0123(6) 1
F2 F1- 2 b 0. 0. 0.5 0.0174(6) 1
B1 B3+ 8 i 0.30220(18) 0.16516(18) 0.0664(4) 0.0064(5) 1
B2 B3+ 4 g 0.22213(15) 0.27787(15) 0.75 0.0045(5) 1
B3 B3+ 8 i 0.2935(2) 0.9986(2) 0.3170(4) 0.0081(4) 1
O1 O2- 8 i 0.22397(12) 0.18112(12) -0.1031(2) 0.0068(3) 1
O2 O2- 4 f 0.26797(10) 0.23203(10) 0.25 0.0067(3) 1
O3 O2- 8 i 0.42460(15) 0.19271(14) 0.0206(2) 0.0109(3) 1
O4 O2- 8 i 0.29272(15) 0.03716(13) 0.1183(3) 0.0103(3) 1
O5 O2- 8 i 0.22764(14) 0.38718(13) 0.8731(2) 0.0101(3) 1
O6 O2- 4 f 0.4380(3) 0.9380(3) 0.75 0.0281(11) 0.5
loop_
_atom_site_aniso_label
_atom_site_aniso_type_symbol
_atom_site_aniso_U_11
_atom_site_aniso_U_22
_atom_site_aniso_U_33
_atom_site_aniso_U_12
_atom_site_aniso_U_13
_atom_site_aniso_U_23
Ba1 Ba2+ 0.01401(6) 0.00764(6) 0.00792(6) -0.00084(4) 0.00195(5) -0.00082(5)
F1 F1- 0.0119(9) 0.0119(9) 0.0130(12) 0. 0. 0.
F2 F1- 0.0183(11) 0.0183(11) 0.0156(13) 0. 0. 0.
B1 B3+ 0.0065(10) 0.0058(10) 0.0068(10) -0.0007(8) -0.0002(7) 0.0008(8)
B2 B3+ 0.0053(7) 0.0053(7) 0.0030(12) 0.0012(8) -0.0003(9) -0.0003(9)
B3 B3+ 0.0089(10) 0.0077(10) 0.0078(10) 0.0008(8) -0.0005(7) -0.0001(8)
O1 O2- 0.0073(7) 0.0062(7) 0.0070(7) -0.0006(5) -0.0022(5) 0.0000(5)
O2 O2- 0.0074(5) 0.0074(5) 0.0055(8) 0.0002(6) -0.0007(6) -0.0007(6)
O3 O2- 0.0066(8) 0.0187(8) 0.0075(7) -0.0032(6) -0.0006(6) 0.0016(6)
O4 O2- 0.0186(8) 0.0054(8) 0.0069(7) 0.0002(6) -0.0007(6) -0.0004(5)
O5 O2- 0.0165(8) 0.0064(7) 0.0074(6) 0.0013(5) -0.0007(6) -0.0009(5)
O6 O2- 0.0323(15) 0.0323(15) 0.020(3) 0.012(2) -0.004(2) 0.004(2)
#End of TTdata_759316-ICSD
#
