(C) 2022 by FIZ Karlsruhe - Leibniz Institute for Information Infrastructure.  All rights reserved.
data_201980-ICSD
_database_code_ICSD 201980
_audit_creation_date 1988-12-19
_chemical_name_common 'Lithium molybdenum oxide (1/8/10)'
_chemical_formula_structural 'Li Mo8 O10'
_chemical_formula_sum 'Li1 Mo8 O10'
_chemical_name_structure_type LiMo8O10
_exptl_crystal_density_diffrn 7.31
_citation_title

;
Synthesis and structure of ternary molybdenum oxides M Mo8 O10 (M=Li or Zn)
having orthogonal nonintersecting octahedral cluster chains
;
loop_
_citation_id
_citation_journal_full
_citation_year
_citation_journal_volume
_citation_page_first
_citation_page_last
_citation_journal_id_ASTM
primary 'Journal of Solid State Chemistry' 1986 64 347 358 JSSCBI
loop_
_citation_author_citation_id
_citation_author_name
primary 'Lii, K.-H.'
primary 'McCarley, R.E.'
primary 'Kim, S.'
primary 'Jacobson, R.A.'
_cell_length_a 5.8515(6)
_cell_length_b 5.8515(6)
_cell_length_c 24.783(3)
_cell_angle_alpha 90.
_cell_angle_beta 90.
_cell_angle_gamma 90.
_cell_volume 848.57
_cell_formula_units_Z 4
_space_group_name_H-M_alt 'I 41 m d'
_space_group_IT_number 109
loop_
_space_group_symop_id
_space_group_symop_operation_xyz
1 'y, -x+1/2, z+1/4'
2 '-y, x+1/2, z+1/4'
3 'x, -y, z'
4 '-x, y, z'
5 '-y, -x+1/2, z+1/4'
6 'y, x+1/2, z+1/4'
7 '-x, -y, z'
8 'x, y, z'
9 'y+1/2, -x, z+3/4'
10 '-y+1/2, x, z+3/4'
11 'x+1/2, -y+1/2, z+1/2'
12 '-x+1/2, y+1/2, z+1/2'
13 '-y+1/2, -x, z+3/4'
14 'y+1/2, x, z+3/4'
15 '-x+1/2, -y+1/2, z+1/2'
16 'x+1/2, y+1/2, z+1/2'
loop_
_atom_type_symbol
_atom_type_oxidation_number
Mo2+ 2.37
O2- -2
Li1+ 1
loop_
_atom_site_label
_atom_site_type_symbol
_atom_site_symmetry_multiplicity
_atom_site_Wyckoff_symbol
_atom_site_fract_x
_atom_site_fract_y
_atom_site_fract_z
_atom_site_B_iso_or_equiv
_atom_site_occupancy
Mo1 Mo2+ 8 b 0.5 0.2262(2) 0 0.56 1.
Mo2 Mo2+ 8 b 0 0.2353(3) 0.00429(6) 0.64 1.
Mo3 Mo2+ 8 b 0 0.2480(3) 0.32808(7) 0.96 1.
Mo4 Mo2+ 8 b 0 0.2760(2) 0.17549(6) 0.63 1.
O1 O2- 8 b 0.5 0.246(2) 0.250(1) 0.59 1.
O2 O2- 8 b 0.5 0.239(2) 0.0811(7) 0.48 1.
O3 O2- 8 b 0.5 0.230(2) 0.4224(9) 1.06 1.
O4 O2- 8 b 0 0.242(3) 0.085(1) 1.36 1.
O5 O2- 8 b 0 0.263(2) 0.4144(9) 0.24 1.
Li1 Li1+ 4 a 0.5 0.5 0.131(2) 1.33 1.
#End of TTdata_201980-ICSD
#
