(C) 2022 by FIZ Karlsruhe - Leibniz Institute for Information Infrastructure.  All rights reserved.
data_83626-ICSD
_database_code_ICSD 83626
_audit_creation_date 1998-06-26
_chemical_name_common 'Dirubidium diiron(III) oxide bis(arsenate(V))'
_chemical_formula_structural 'Rb2 Fe2 O (As O4)2'
_chemical_formula_sum 'As2 Fe2 O9 Rb2'
_exptl_crystal_density_diffrn 4.16
_diffrn_ambient_temperature 296.
_citation_title

;
Layered iron(III) arsenates; synthesis and characterization of A2 Fe2 O (As
O4)2 (A = K, Rb)
;
loop_
_citation_id
_citation_journal_full
_citation_year
_citation_journal_volume
_citation_page_first
_citation_page_last
_citation_journal_id_ASTM
primary 'Inorganic Chemistry' 1997 36 3410 3413 INOCAJ
loop_
_citation_author_citation_id
_citation_author_name
primary 'Chang, R.-S.'
primary 'Wang, S.-L.'
primary 'Lii, K.-H.'
_cell_length_a 8.5330(2)
_cell_length_b 5.7945(2)
_cell_length_c 18.61569(10)
_cell_angle_alpha 90.
_cell_angle_beta 90.
_cell_angle_gamma 90.
_cell_volume 920.44
_cell_formula_units_Z 4
_space_group_name_H-M_alt 'P n m a'
_space_group_IT_number 62
loop_
_space_group_symop_id
_space_group_symop_operation_xyz
1 'x+1/2, y, -z+1/2'
2 'x, -y+1/2, z'
3 '-x+1/2, y+1/2, z+1/2'
4 '-x, -y, -z'
5 '-x+1/2, -y, z+1/2'
6 '-x, y+1/2, -z'
7 'x+1/2, -y+1/2, -z+1/2'
8 'x, y, z'
loop_
_atom_type_symbol
_atom_type_oxidation_number
Rb1+ 1
Fe3+ 3
As5+ 5
O2- -2
loop_
_atom_site_label
_atom_site_type_symbol
_atom_site_symmetry_multiplicity
_atom_site_Wyckoff_symbol
_atom_site_fract_x
_atom_site_fract_y
_atom_site_fract_z
_atom_site_U_iso_or_equiv
_atom_site_occupancy
Rb1 Rb1+ 4 c -.0380(1) 0.75 0.26778(6) 0.0288(4) 1.
Rb2 Rb1+ 4 c 0.6106(4) 0.25 0.36303(6) 0.0208(4) 0.948(2)
Rb3 Rb1+ 4 c 0.702(4) 0.25 0.352(1) 0.0208(4) 0.052(2)
Fe1 Fe3+ 4 c 0.7158(1) 0.25 0.56544(7) 0.0097(4) 1.
Fe2 Fe3+ 4 b 0 0 0.5 0.0088(4) 1.
As1 As5+ 4 c 0.3241(1) 0.25 0.55595(5) 0.0087(3) 1.
As2 As5+ 4 c 0.1795(1) 0.25 0.35720(5) 0.0104(3) 1.
O1 O2- 4 c 0.5090(7) 0.25 0.5256(4) 0.018(2) 1.
O2 O2- 4 c 0.3174(8) 0.25 0.6448(3) 0.018(2) 1.
O3 O2- 8 d 0.2326(5) 0.0105(6) 0.5219(2) 0.013(1) 1.
O4 O2- 4 c 0.0846(9) 0.25 0.2808(4) 0.024(2) 1.
O5 O2- 4 c 0.0396(7) 0.25 0.4234(3) 0.010(2) 1.
O6 O2- 8 d 0.2960(5) 0.0128(7) 0.3657(2) 0.014(1) 1.
O7 O2- 4 c -.0574(7) 0.25 0.5634(3) 0.008(2) 1.
#End of TTdata_83626-ICSD
#
