(C) 2022 by FIZ Karlsruhe - Leibniz Institute for Information Infrastructure.  All rights reserved.
data_171252-ICSD
_database_code_ICSD 171252
_audit_creation_date 2006-10-01
_chemical_name_common 'Trisodium fluoride stannotrisilicate'
_chemical_formula_structural '(Na3 F) (Sn Si3 O9)'
_chemical_formula_sum 'F1 Na3 O9 Si3 Sn1'
_exptl_crystal_density_diffrn 3.24
_diffrn_ambient_temperature 296.
_citation_title

;
Synthesis, crystal structure, and solid-state NMR spectroscopy of a
salt-inclusion stannosilicate: [Na3 F][Sn Si3 O9]
;
loop_
_citation_id
_citation_journal_full
_citation_year
_citation_journal_volume
_citation_page_first
_citation_page_last
_citation_journal_id_ASTM
primary 'Inorganic Chemistry' 2005 44 9335 9339 INOCAJ
loop_
_citation_author_citation_id
_citation_author_name
primary 'Liao, C.-H.'
primary 'Chang, P.-C.'
primary 'Kao, H.-M.'
primary 'Lii, K.-H.'
_cell_length_a 10.5393(11)
_cell_length_b 13.9532(15)
_cell_length_c 6.5171(7)
_cell_angle_alpha 90.
_cell_angle_beta 111.576(2)
_cell_angle_gamma 90.
_cell_volume 891.23
_cell_formula_units_Z 4
_space_group_name_H-M_alt 'C 1 2/m 1'
_space_group_IT_number 12
loop_
_space_group_symop_id
_space_group_symop_operation_xyz
1 '-x, y, -z'
2 '-x, -y, -z'
3 'x, -y, z'
4 'x, y, z'
5 '-x+1/2, y+1/2, -z'
6 '-x+1/2, -y+1/2, -z'
7 'x+1/2, -y+1/2, z'
8 'x+1/2, y+1/2, z'
loop_
_atom_type_symbol
_atom_type_oxidation_number
Na1+ 1
F1- -1
Sn4+ 4
Si4+ 4
O2- -2
loop_
_atom_site_label
_atom_site_type_symbol
_atom_site_symmetry_multiplicity
_atom_site_Wyckoff_symbol
_atom_site_fract_x
_atom_site_fract_y
_atom_site_fract_z
_atom_site_U_iso_or_equiv
_atom_site_occupancy
Na1 Na1+ 4 i 0.00955(15) 0.5 0.2619(2) 0.0231(3) 1
Na2 Na1+ 8 j 0.25833(10) 0.13543(7) 0.91792(16) 0.0206(2) 1
F1 F1- 4 i 0.3506(2) 0. 0.9306(3) 0.0197(4) 1
Sn1 Sn4+ 4 h 0. 0.275683(13) 0.5 0.00714(7) 1
Si1 Si4+ 8 j 0.20218(6) 0.11077(4) 0.39643(9) 0.00797(12) 1
Si2 Si4+ 4 g 0. 0.21412(6) 0. 0.00830(16) 1
O1 O2- 8 j 0.14831(15) 0.17525(10) 0.5524(2) 0.0113(3) 1
O2 O2- 8 j 0.36511(15) 0.11510(11) 0.4616(2) 0.0111(3) 1
O3 O2- 4 i 0.1598(2) 0. 0.4079(4) 0.0151(5) 1
O4 O2- 8 j 0.12877(16) 0.14607(12) 0.1388(2) 0.0146(3) 1
O5 O2- 8 j 0.04899(17) 0.27682(11) -0.1640(3) 0.0132(3) 1
loop_
_atom_site_aniso_label
_atom_site_aniso_type_symbol
_atom_site_aniso_U_11
_atom_site_aniso_U_22
_atom_site_aniso_U_33
_atom_site_aniso_U_12
_atom_site_aniso_U_13
_atom_site_aniso_U_23
Na1 Na1+ 0.0219(7) 0.0264(7) 0.0163(7) 0. 0.0016(6) 0.
Na2 Na1+ 0.0204(5) 0.0238(5) 0.0172(5) 0.0032(4) 0.0066(4) 0.0002(4)
F1 F1- 0.0203(10) 0.0189(10) 0.0179(10) 0. 0.0048(8) 0.
Sn1 Sn4+ 0.00726(11) 0.00685(11) 0.00758(11) 0. 0.00303(8) 0.
Si1 Si4+ 0.0074(3) 0.0069(3) 0.0096(3) 0.0007(2) 0.0031(2) -0.0001(2)
Si2 Si4+ 0.0082(4) 0.0102(4) 0.0067(4) 0. 0.0031(3) 0.
O1 O2- 0.0118(7) 0.0113(7) 0.0102(7) 0.0046(6) 0.0035(6) 0.0010(6)
O2 O2- 0.0084(7) 0.0091(7) 0.0151(8) -0.0018(5) 0.0036(6) 0.0014(6)
O3 O2- 0.0113(10) 0.0085(10) 0.0263(12) 0. 0.0076(9) 0.
O4 O2- 0.0134(7) 0.0196(8) 0.0097(7) 0.0065(6) 0.0028(6) 0.0006(6)
O5 O2- 0.0157(8) 0.0155(8) 0.0087(7) -0.0050(6) 0.0050(6) -0.0010(6)
#End of TTdata_171252-ICSD
#
