(C) 2022 by FIZ Karlsruhe - Leibniz Institute for Information Infrastructure.  All rights reserved.
data_173281-ICSD
_database_code_ICSD 173281
_audit_creation_date 2008-08-01
_chemical_name_common 'Dirubidium gadolinium gallium tetrasilicate'
_chemical_formula_structural 'Rb2 Gd Ga Si4 O12'
_chemical_formula_sum 'Ga1 Gd1 O12 Rb2 Si4'
_chemical_name_structure_type Rb2YGaSi4O12
_exptl_crystal_density_diffrn 3.78
_diffrn_ambient_temperature 293.
_citation_title

;
Rb2 RE Ga Si4 O12 (RE = Y, Eu, Gd, Tb): luminescent mixed-anion double layer
silicates containing chains of edge-sharing RE O7 pentagonal bipyramids
;
loop_
_citation_id
_citation_journal_full
_citation_year
_citation_journal_volume
_citation_page_first
_citation_page_last
_citation_journal_id_ASTM
primary 'Inorganic Chemistry' 2008 47 1910 1912 INOCAJ
loop_
_citation_author_citation_id
_citation_author_name
primary 'Lee Cheng shiuan'
primary 'Liao Yueh Chun'
primary 'Hsu Jungtsung'
primary 'Wang Sue Lein'
primary 'Lii Kwanghwa'
_cell_length_a 22.533(3)
_cell_length_b 7.3349(8)
_cell_length_c 14.9175(17)
_cell_angle_alpha 90.
_cell_angle_beta 90.285(2)
_cell_angle_gamma 90.
_cell_volume 2465.49
_cell_formula_units_Z 8
_space_group_name_H-M_alt 'I 1 2/a 1'
_space_group_IT_number 15
loop_
_space_group_symop_id
_space_group_symop_operation_xyz
1 'x+1/2, -y, z'
2 '-x, -y, -z'
3 '-x+1/2, y, -z'
4 'x, y, z'
5 'x, -y+1/2, z+1/2'
6 '-x+1/2, -y+1/2, -z+1/2'
7 '-x, y+1/2, -z+1/2'
8 'x+1/2, y+1/2, z+1/2'
loop_
_atom_type_symbol
_atom_type_oxidation_number
Rb1+ 1
Gd3+ 3
Ga3+ 3
Si4+ 4
O2- -2
loop_
_atom_site_label
_atom_site_type_symbol
_atom_site_symmetry_multiplicity
_atom_site_Wyckoff_symbol
_atom_site_fract_x
_atom_site_fract_y
_atom_site_fract_z
_atom_site_U_iso_or_equiv
_atom_site_occupancy
Rb1 Rb1+ 8 f 0.558408(19) 0.74694(6) 0.02378(3) 0.01662(12) 1
Rb2 Rb1+ 8 f 0.78483(3) -0.01196(8) -0.16822(4) 0.03189(14) 1
Gd1 Gd3+ 8 f 0.519200(8) 0.96802(3) 0.269475(12) 0.00614(8) 1
Ga1 Ga3+ 8 f 0.67996(2) 0.55162(6) -0.09379(3) 0.00751(11) 1
Si1 Si4+ 8 f 0.58278(5) 1.22197(15) 0.09090(7) 0.0065(2) 1
Si2 Si4+ 8 f 0.81218(5) 0.47976(15) -0.11055(8) 0.0067(2) 1
Si3 Si4+ 8 f 0.86923(5) 0.60836(14) -0.29130(7) 0.0062(2) 1
Si4 Si4+ 8 f 0.91182(5) 0.27380(14) -0.38335(7) 0.0062(2) 1
O1 O2- 8 f 0.57743(14) 1.0450(4) 0.1526(2) 0.0107(6) 1
O2 O2- 8 f 0.57507(14) 1.1563(4) -0.01516(19) 0.0115(6) 1
O3 O2- 8 f 0.53792(13) 1.3847(4) 0.1115(2) 0.0126(6) 1
O4 O2- 8 f 0.65233(13) 1.2900(4) 0.0965(2) 0.0132(6) 1
O5 O2- 8 f 0.81818(13) 0.6098(4) -0.02421(19) 0.0121(6) 1
O6 O2- 8 f 0.74419(14) 0.4262(4) -0.1336(2) 0.0135(6) 1
O7 O2- 8 f 0.84085(15) 0.5962(5) -0.1911(2) 0.0160(6) 1
O8 O2- 8 f 0.86250(13) 0.4061(4) -0.3375(2) 0.0123(6) 1
O9 O2- 8 f 0.93698(13) 0.6722(4) -0.2885(2) 0.0110(6) 1
O10 O2- 8 f 0.82375(14) 0.7384(4) -0.3443(2) 0.0156(6) 1
O11 O2- 8 f 0.89054(13) 0.0623(4) -0.3797(2) 0.0108(6) 1
O12 O2- 8 f 0.97242(13) 0.2706(4) -0.32635(19) 0.0092(6) 1
loop_
_atom_site_aniso_label
_atom_site_aniso_type_symbol
_atom_site_aniso_U_11
_atom_site_aniso_U_22
_atom_site_aniso_U_33
_atom_site_aniso_U_12
_atom_site_aniso_U_13
_atom_site_aniso_U_23
Rb1 Rb1+ 0.0109(2) 0.0180(2) 0.0210(2) 0.00120(14) 0.00194(16) -0.00207(16)
Rb2 Rb1+ 0.0238(3) 0.0330(3) 0.0388(3) -0.0106(2) -0.0036(2) -0.0098(2)
Gd1 Gd3+ 0.00427(12) 0.00740(13) 0.00673(12) -0.00067(6) -0.00041(8) -0.00005(6)
Ga1 Ga3+ 0.0041(2) 0.0098(2) 0.0086(2) 0.00007(14) -0.00091(16) 0.00110(15)
Si1 Si4+ 0.0036(5) 0.0093(5) 0.0066(5) -0.0010(4) 0.0001(4) -0.0002(4)
Si2 Si4+ 0.0035(5) 0.0101(5) 0.0066(5) 0.0016(4) -0.0004(4) 0.0004(4)
Si3 Si4+ 0.0037(5) 0.0081(5) 0.0069(5) 0.0003(4) 0.0000(4) 0.0004(4)
Si4 Si4+ 0.0037(5) 0.0079(5) 0.0070(5) -0.0001(4) -0.0012(4) -0.0006(4)
O1 O2- 0.0108(15) 0.0099(14) 0.0114(14) -0.0005(10) 0.0009(11) 0.0028(10)
O2 O2- 0.0144(15) 0.0143(14) 0.0057(13) -0.0018(11) -0.0005(11) -0.0001(11)
O3 O2- 0.0073(14) 0.0132(14) 0.0174(15) 0.0031(11) 0.0030(11) -0.0013(12)
O4 O2- 0.0038(14) 0.0121(14) 0.0237(16) -0.0017(11) -0.0020(12) -0.0026(12)
O5 O2- 0.0117(15) 0.0168(15) 0.0078(13) -0.0004(11) 0.0002(11) 0.0007(11)
O6 O2- 0.0079(15) 0.0152(14) 0.0174(15) 0.0031(11) -0.0020(12) -0.0035(12)
O7 O2- 0.0195(17) 0.0189(16) 0.0097(14) 0.0018(13) 0.0071(12) 0.0013(12)
O8 O2- 0.0081(14) 0.0110(14) 0.0179(15) -0.0009(11) 0.0010(11) -0.0071(12)
O9 O2- 0.0051(14) 0.0122(14) 0.0157(14) -0.0038(11) -0.0012(11) -0.0013(11)
O10 O2- 0.0075(15) 0.0180(15) 0.0213(17) -0.0002(11) -0.0039(12) 0.0108(12)
O11 O2- 0.0074(14) 0.0097(13) 0.0154(15) -0.0019(10) -0.0040(11) -0.0006(11)
O12 O2- 0.0082(14) 0.0103(13) 0.0091(13) -0.0012(10) -0.0044(11) 0.0005(10)
#End of TTdata_173281-ICSD
#
