(C) 2022 by FIZ Karlsruhe - Leibniz Institute for Information Infrastructure.  All rights reserved.
data_66700-ICSD
_database_code_ICSD 66700
_audit_creation_date 1995-10-17
_chemical_name_common 'Strontium dioxovanadium phosphate'
_chemical_formula_structural 'Sr (V O2) (P O4)'
_chemical_formula_sum 'O6 P1 Sr1 V1'
_chemical_name_structure_type LiBaCrF6
_exptl_crystal_density_diffrn 3.87
_diffrn_ambient_temperature 297.
_citation_title

;
Hydrothermal synthesis and structures of two layered dioxovanadium(V)
phosphates A(VO2)PO4 (A= Ba, Sr)
;
loop_
_citation_id
_citation_journal_full
_citation_year
_citation_journal_volume
_citation_page_first
_citation_page_last
_citation_journal_id_ASTM
primary 'Acta Crystallographica, Section C: Crystal Structure Communications'
1992 48 975 978 ACSCEE
loop_
_citation_author_citation_id
_citation_author_name
primary 'Kang, H.-Y.'
primary 'Wang, S.-L.'
primary 'Lii, K.-H.'
_cell_length_a 5.430(1)
_cell_length_b 9.846(2)
_cell_length_c 8.517(2)
_cell_angle_alpha 90.
_cell_angle_beta 90.60(2)
_cell_angle_gamma 90.
_cell_volume 455.33
_cell_formula_units_Z 4
_space_group_name_H-M_alt 'P 1 21/c 1'
_space_group_IT_number 14
loop_
_space_group_symop_id
_space_group_symop_operation_xyz
1 'x, -y+1/2, z+1/2'
2 '-x, -y, -z'
3 '-x, y+1/2, -z+1/2'
4 'x, y, z'
loop_
_atom_type_symbol
_atom_type_oxidation_number
Sr2+ 2
V5+ 5
P5+ 5
O2- -2
loop_
_atom_site_label
_atom_site_type_symbol
_atom_site_symmetry_multiplicity
_atom_site_Wyckoff_symbol
_atom_site_fract_x
_atom_site_fract_y
_atom_site_fract_z
_atom_site_B_iso_or_equiv
_atom_site_occupancy
Sr1 Sr2+ 4 e 0.83985(8) 0.68435(4) 0.07688(5) . 1.
V1 V5+ 4 e 0.3352(1) 0.58865(8) 0.41072(9) . 1.
P1 P5+ 4 e 0.6674(2) 0.3882(1) 0.2166(1) . 1.
O1 O2- 4 e 0.2549(6) 0.6646(3) 0.6173(4) . 1.
O2 O2- 4 e 0.5279(6) 0.5264(3) 0.2287(4) . 1.
O3 O2- 4 e 0.5058(6) 0.7789(3) 0.3549(4) . 1.
O4 O2- 4 e 0.0763(6) 0.6280(3) 0.3278(4) . 1.
O5 O2- 4 e 0.6949(6) 0.5735(3) 0.5306(4) . 1.
O6 O2- 4 e 0.8880(6) 0.4159(4) 0.1158(4) . 1.
loop_
_atom_site_aniso_label
_atom_site_aniso_type_symbol
_atom_site_aniso_U_11
_atom_site_aniso_U_22
_atom_site_aniso_U_33
_atom_site_aniso_U_12
_atom_site_aniso_U_13
_atom_site_aniso_U_23
Sr1 Sr2+ 0.0055(3) 0.0082(2) 0.0058(2) 0.0008(2) 0.0008(2) 0.0008(2)
V1 V5+ 0.0025(4) 0.0061(4) 0.0030(4) 0.0002(3) 0.0011(3) 0.0001(3)
P1 P5+ 0.0037(6) 0.0063(6) 0.0028(5) -.0004(4) 0.0020(4) -.0004(4)
O1 O2- 0.0080(18) 0.0096(16) 0.0046(16) 0.0028(13) 0.0010(13) 0.0000(12)
O2 O2- 0.0068(16) 0.0073(15) 0.0061(15) 0.0022(13) 0.0015(12) 0.0008(12)
O3 O2- 0.0054(17) 0.0080(15) 0.0088(15) -.0013(13) -.0012(13) 0.0000(13)
O4 O2- 0.0061(17) 0.0126(17) 0.0065(16) -.0011(14) 0.0002(13) 0.0000(13)
O5 O2- 0.0049(16) 0.0079(15) 0.0095(9) -.0025(13) 0.0016(12) 0.0008(13)
O6 O2- 0.0120(19) 0.0114(17) 0.0108(16) -.0026(14) 0.0082(14) -.0016(13)
#End of TTdata_66700-ICSD
#
