(C) 2022 by FIZ Karlsruhe - Leibniz Institute for Information Infrastructure.  All rights reserved.
data_121062-ICSD
_database_code_ICSD 121062
_audit_creation_date 2021-08-01
_chemical_name_common 'Barium disilicoborate hydroxide'
_chemical_formula_structural 'Ba (Si2 B O6 (O H))'
_chemical_formula_sum 'H1 B1 Ba1 O7 Si2'
_exptl_crystal_density_diffrn 3.71
_diffrn_ambient_temperature 296.
_citation_title

;
Flux synthesis and characterization of two barium hydroxyborosilicates with
triple and single tetrahedral layers. Ba$_2$[Si$_3$B$_3$O$_{12}$(OH)] and
Ba[Si$_2$BO$_6$(OH)]
;
loop_
_citation_id
_citation_journal_full
_citation_year
_citation_journal_volume
_citation_page_first
_citation_page_last
_citation_journal_id_ASTM
primary 'Journal of Solid State Chemistry' 2020 287 '' '' JSSCBI
loop_
_citation_author_citation_id
_citation_author_name
primary 'Chang, Ling-Wei'
primary 'Liu, Hsin-Kuan'
primary 'Lii, Kwang-Hwa'
_cell_length_a 7.4206(2)
_cell_length_b 8.9405(2)
_cell_length_c 8.5677(2)
_cell_angle_alpha 90
_cell_angle_beta 90.2080(10)
_cell_angle_gamma 90
_cell_volume 568.41
_cell_formula_units_Z 4
_space_group_name_H-M_alt 'P 1 21/c 1'
_space_group_IT_number 14
loop_
_space_group_symop_id
_space_group_symop_operation_xyz
1 'x, -y+1/2, z+1/2'
2 '-x, -y, -z'
3 '-x, y+1/2, -z+1/2'
4 'x, y, z'
loop_
_atom_type_symbol
_atom_type_oxidation_number
Ba2+ 2
Si4+ 4
B3+ 3
O2- -2
H1+ 1
loop_
_atom_site_label
_atom_site_type_symbol
_atom_site_symmetry_multiplicity
_atom_site_Wyckoff_symbol
_atom_site_fract_x
_atom_site_fract_y
_atom_site_fract_z
_atom_site_U_iso_or_equiv
_atom_site_occupancy
Ba1 Ba2+ 4 e 0.19959(7) 0.72812(7) -0.00442(6) 0.01455(16) 1
Si1 Si4+ 4 e 0.4325(3) 0.4624(3) 0.2600(3) 0.0119(5) 1
Si2 Si4+ 4 e 0.7206(3) 0.7654(3) 0.4986(3) 0.0087(4) 1
B1 B3+ 4 e 0.8147(13) 0.5684(11) 0.2636(10) 0.0089(17) 1
O1 O2- 4 e 0.6320(11) 0.5124(11) 0.2744(8) 0.035(2) 1
O2 O2- 4 e 0.8569(9) 0.6776(8) 0.3853(7) 0.0154(13) 1
O3 O2- 4 e 0.9357(11) 0.4379(9) 0.2801(8) 0.0248(16) 1
O4 O2- 4 e 0.8535(9) 0.6321(8) 0.1050(7) 0.0170(14) 1
O5 O2- 4 e 0.5898(9) 0.6581(8) 0.5991(8) 0.0194(14) 1
O6 O2- 4 e 0.5759(9) 0.8668(8) 0.4039(7) 0.0174(14) 1
O7 O2- 4 e 0.2844(10) 0.5873(9) 0.2620(8) 0.0252(16) 1
loop_
_atom_site_aniso_label
_atom_site_aniso_type_symbol
_atom_site_aniso_U_11
_atom_site_aniso_U_22
_atom_site_aniso_U_33
_atom_site_aniso_U_12
_atom_site_aniso_U_13
_atom_site_aniso_U_23
Ba1 Ba2+ 0.0132(3) 0.0197(3) 0.0107(2) 0.0007(2) 0.00008(17) 0.0041(2)
Si1 Si4+ 0.0130(11) 0.0157(12) 0.0072(10) -0.0032(9) -0.0005(8) -0.0004(9)
Si2 Si4+ 0.0101(10) 0.0104(11) 0.0057(9) 0.0001(9) 0.0000(8) -0.0001(8)
B1 B3+ 0.014(4) 0.009(4) 0.004(4) -0.001(3) -0.003(3) -0.002(3)
O1 O2- 0.034(4) 0.068(6) 0.004(3) -0.039(4) 0.002(3) -0.002(3)
O2 O2- 0.012(3) 0.021(3) 0.013(3) -0.001(3) 0.003(2) -0.004(3)
O3 O2- 0.037(4) 0.020(4) 0.018(3) 0.008(3) 0.003(3) 0.000(3)
O4 O2- 0.017(3) 0.024(4) 0.010(3) 0.000(3) 0.000(2) 0.002(3)
O5 O2- 0.020(3) 0.027(4) 0.011(3) -0.002(3) 0.004(3) 0.003(3)
O6 O2- 0.019(3) 0.026(4) 0.007(3) 0.001(3) -0.002(2) 0.004(3)
O7 O2- 0.027(4) 0.030(4) 0.018(3) 0.011(3) -0.003(3) 0.002(3)
#End of TTdata_121062-ICSD
#
