(C) 2022 by FIZ Karlsruhe - Leibniz Institute for Information Infrastructure.  All rights reserved.
data_202621-ICSD
_database_code_ICSD 202621
_audit_creation_date 1989-06-19
_audit_update_record 2013-02-01
_chemical_name_common 'Molybdenum(III) phosphatosilicate *'
_chemical_formula_structural 'Mo3 (P5 Si O19)'
_chemical_formula_sum 'Mo3 O19 P5 Si1'
_exptl_crystal_density_diffrn 3.72
_citation_title

;
Mo3 P5 Si O19: A Molybdenum Phosphate Containing a Confacial Bioctahedral
Molybdenum(III) Dimer with a Mo-Mo Bond
;
loop_
_citation_id
_citation_journal_full
_citation_year
_citation_journal_volume
_citation_page_first
_citation_page_last
_citation_journal_id_ASTM
primary 'Journal of Solid State Chemistry' 1988 74 409 413 JSSCBI
loop_
_citation_author_citation_id
_citation_author_name
primary 'Wang, S.-L.'
primary 'Wang, C.-C.'
primary 'Lii, K.-H.'
_cell_length_a 14.692(4)
_cell_length_b 14.692(4)
_cell_length_c 7.394(4)
_cell_angle_alpha 90.
_cell_angle_beta 90.
_cell_angle_gamma 120.
_cell_volume 1382.2
_cell_formula_units_Z 4
_space_group_name_H-M_alt 'P 63'
_space_group_IT_number 173
loop_
_space_group_symop_id
_space_group_symop_operation_xyz
1 'x-y, x, z+1/2'
2 'y, -x+y, z+1/2'
3 '-x, -y, z+1/2'
4 '-x+y, -x, z'
5 '-y, x-y, z'
6 'x, y, z'
loop_
_atom_type_symbol
_atom_type_oxidation_number
Mo3+ 3
P5+ 5
Si4+ 4
O2- -2
loop_
_atom_site_label
_atom_site_type_symbol
_atom_site_symmetry_multiplicity
_atom_site_Wyckoff_symbol
_atom_site_fract_x
_atom_site_fract_y
_atom_site_fract_z
_atom_site_U_iso_or_equiv
_atom_site_occupancy
Mo1 Mo3+ 6 c -.0085(1) 0.3272(1) 0.125 0.0073(8) 1.
Mo2 Mo3+ 6 c 0.0060(1) 0.3375(1) 0.4775(1) 0.0077(9) 1.
P1 P5+ 6 c -.1900(4) 0.2462(4) 0.7902(6) 0.005(1) 1.
P2 P5+ 6 c 0.0853(4) 0.2291(4) 0.7969(7) 0.008(1) 1.
P3 P5+ 6 c 0.1026(5) 0.5210(4) -.2040(7) 0.008(1) 1.
P4 P5+ 2 a 0 0 0.272(6) 0.013(2) 0.55
P5 P5+ 2 a 0 0 0.346(8) 0.013(2) 0.45
Si1 Si4+ 2 b 0.3333 0.6667 -.236(2) 0.002(2) 1.
Si2 Si4+ 2 b 0.3333 0.6667 0.347(2) 0.005(2) 1.
O1 O2- 6 c 0.085(1) 0.459(1) -.0306(2) 0.019(3) 1.
O2 O2- 2 b 0.3333 0.6667 -.442(4) 0.002(2) 1.
O3 O2- 6 c -.098(1) 0.207(1) 0.322(2) 0.005(3) 1.
O4 O2- 6 c 0.0323(8) 0.2346(7) -.035(2) 0.006(2) 1.
O5 O2- 6 c -.1473(7) 0.2854(7) -.016(1) 0.001(1) 1.
O6 O2- 6 c 0.736(1) 0.452(1) 0.777(2) 0.023(4) 1.
O7 O2- 6 c 0.926(1) 0.882(1) 0.316(1) 0.011(3) 1.
O8 O2- 6 c 0.2166(7) 0.6182(7) -.147(2) 0.001(2) 1.
O9 O2- 6 c 0.103(1) 0.470(1) 0.621(2) 0.025(3) 1.
O10 O2- 6 c -.1099(7) 0.3034(8) 0.647(1) 0.009(2) 1.
O11 O2- 6 c 0.129(1) 0.323(1) 0.296(2) 0.009(4) 1.
O12 O2- 6 c 0.045(1) 0.254(1) -.363(2) 0.024(3) 1.
O13 O2- 6 c 0.962(1) 0.421(1) 0.307(1) 0.008(3) 1.
O14 O2- 2 a 0 0 0.054(8) 0.15(2) 1.
#End of TTdata_202621-ICSD
#
