(C) 2022 by FIZ Karlsruhe - Leibniz Institute for Information Infrastructure.  All rights reserved.
data_261600-ICSD
_database_code_ICSD 261600
_audit_creation_date 2011-08-01
_chemical_name_common
'Octacesium uranium(IV) tris(uranyl(VI)) tris(trigermanate) trihydrate'
_chemical_formula_structural 'Cs8 U (U O2)3 (Ge3 O9)3 (H2 O)3'
_chemical_formula_sum 'H6 Cs8 Ge9 O36 U4'
_exptl_crystal_density_diffrn 5.1
_diffrn_ambient_temperature 296.
_citation_title

;
Cs8 U(IV) (U(VI) O2)3 (Ge3 O9)3 * 3 H2 O: A mixed-valence uranium germanate
with 9-ring channels
;
loop_
_citation_id
_citation_journal_full
_citation_year
_citation_journal_volume
_citation_page_first
_citation_page_last
_citation_journal_id_ASTM
primary 'Inorganic Chemistry' 2011 50 4241 4243 INOCAJ
loop_
_citation_author_citation_id
_citation_author_name
primary 'Nguyen Quang Bac'
primary 'Liu Hsin-Kuan'
primary 'Chang Wen-Jung'
primary 'Lii Kwang-Hwa'
_cell_length_a 14.8850(7)
_cell_length_b 14.8850(7)
_cell_length_c 11.0320(6)
_cell_angle_alpha 90.
_cell_angle_beta 90.
_cell_angle_gamma 120.
_cell_volume 2116.81
_cell_formula_units_Z 2
_space_group_name_H-M_alt 'P 63/m'
_space_group_IT_number 176
loop_
_space_group_symop_id
_space_group_symop_operation_xyz
1 '-x+y, -x, -z+1/2'
2 '-y, x-y, -z+1/2'
3 'x, y, -z+1/2'
4 'x-y, x, -z'
5 'y, -x+y, -z'
6 '-x, -y, -z'
7 'x-y, x, z+1/2'
8 'y, -x+y, z+1/2'
9 '-x, -y, z+1/2'
10 '-x+y, -x, z'
11 '-y, x-y, z'
12 'x, y, z'
loop_
_atom_type_symbol
_atom_type_oxidation_number
Cs1+ 1
U4+ 4
U6+ 6
Ge4+ 4
O2- -2
H1+ 1
loop_
_atom_site_label
_atom_site_type_symbol
_atom_site_symmetry_multiplicity
_atom_site_Wyckoff_symbol
_atom_site_fract_x
_atom_site_fract_y
_atom_site_fract_z
_atom_site_U_iso_or_equiv
_atom_site_occupancy
Cs1 Cs1+ 4 f -0.6667 -0.3333 -0.04489(8) 0.03458(19) 1
Cs2 Cs1+ 12 i -0.33460(2) -0.17252(3) 0.43840(4) 0.02522(14) 1
U1 U4+ 2 b -1. -1. -0.5 0.00942(13) 1
U2 U6+ 6 g -0.5 -0.5 0. 0.01330(12) 1
Ge1 Ge4+ 6 h -0.93455(5) -0.62689(5) -0.25 0.00869(17) 1
Ge2 Ge4+ 6 h -0.87653(5) -0.80676(5) -0.25 0.00993(17) 1
Ge3 Ge4+ 6 h -0.69486(5) -0.56928(5) -0.25 0.00917(17) 1
O1 O2- 6 h -0.7992(4) -0.5443(4) -0.25 0.0322(16) 1
O2 O2- 12 i -0.9867(4) -0.6147(3) -0.3813(4) 0.0351(11) 1
O3 O2- 6 h -0.9615(4) -0.7574(4) -0.25 0.0253(14) 1
O4 O2- 12 i -0.8898(3) -0.8715(3) -0.3833(4) 0.0242(9) 1
O5 O2- 6 h -0.7459(4) -0.7040(4) -0.25 0.0266(14) 1
O6 O2- 12 i -0.6300(3) -0.5174(3) -0.3830(4) 0.0258(9) 1
O7 O2- 12 i -0.4853(3) -0.5956(3) -0.0861(4) 0.0282(9) 1
O8 O2- 6 h -0.7026(8) -0.4789(9) 0.25 0.085(3) 1
H1 H1+ 6 h -0.747 -0.5448 0.25 0.102 1
H2 H1+ 6 h -0.7341 -0.4435 0.25 0.102 1
loop_
_atom_site_aniso_label
_atom_site_aniso_type_symbol
_atom_site_aniso_U_11
_atom_site_aniso_U_22
_atom_site_aniso_U_33
_atom_site_aniso_U_12
_atom_site_aniso_U_13
_atom_site_aniso_U_23
Cs1 Cs1+ 0.0248(2) 0.0248(2) 0.0541(5) 0.01241(11) 0. 0.
Cs2 Cs1+ 0.0267(2) 0.0249(2) 0.0259(2) 0.01434(15) 0.00435(13) 0.00344(13)
U1 U4+ 0.01128(16) 0.01128(16) 0.0057(2) 0.00564(8) 0. 0.
U2 U6+ 0.01478(17) 0.01138(16) 0.00920(19) 0.00313(11) -0.00311(9) 0.00213(8)
Ge1 Ge4+ 0.0090(3) 0.0101(3) 0.0087(3) 0.0061(3) 0. 0.
Ge2 Ge4+ 0.0102(3) 0.0085(3) 0.0108(3) 0.0045(3) 0. 0.
Ge3 Ge4+ 0.0062(3) 0.0095(3) 0.0100(3) 0.0025(3) 0. 0.
O1 O2- 0.009(2) 0.010(2) 0.075(5) 0.003(2) 0. 0.
O2 O2- 0.050(3) 0.024(2) 0.030(2) 0.017(2) -0.025(2) -0.0022(19)
O3 O2- 0.008(2) 0.011(2) 0.059(4) 0.006(2) 0. 0.
O4 O2- 0.0226(19) 0.026(2) 0.021(2) 0.0103(16) -0.0032(17) -0.0113(17)
O5 O2- 0.011(2) 0.009(2) 0.060(4) 0.005(2) 0. 0.
O6 O2- 0.031(2) 0.029(2) 0.019(2) 0.0158(18) 0.0123(17) 0.0058(17)
O7 O2- 0.035(2) 0.024(2) 0.025(2) 0.0145(18) -0.0047(18) -0.0068(17)
O8 O2- 0.085(7) 0.091(8) 0.088(8) 0.051(6) 0. 0.
#End of TTdata_261600-ICSD
#
