(C) 2022 by FIZ Karlsruhe - Leibniz Institute for Information Infrastructure.  All rights reserved.
data_73924-ICSD
_database_code_ICSD 73924
_audit_creation_date 1995-01-10
_audit_update_record 2015-02-01
_chemical_name_common
'Dibarium trivanadium(III) hydrogen bis(phosphate) bis(diphosphate)'
_chemical_formula_structural 'Ba2 V3 H (P O4)2 (P2 O7)2'
_chemical_formula_sum 'H1 Ba2 O22 P6 V3'
_chemical_name_structure_type Ba2V3H(PO4)2(P2O7)2
_exptl_crystal_density_diffrn 3.71
_citation_title

;
Hydrothermal synthesis and crystal structures of Ba2Fe3H(PO4)2(P2O7)2 and
Ba2V3H(PO4)2(P2O7)2
;
loop_
_citation_id
_citation_journal_full
_citation_year
_citation_journal_volume
_citation_page_first
_citation_page_last
_citation_journal_id_ASTM
primary 'Journal of Solid State Chemistry' 1993 106 485 492 JSSCBI
loop_
_citation_author_citation_id
_citation_author_name
primary 'Dvoncova, E.'
primary 'Lii, K.-H.'
primary 'Li, C.-H.'
primary 'Chen, T.-M.'
_cell_length_a 4.8433(8)
_cell_length_b 7.902(1)
_cell_length_c 11.308(2)
_cell_angle_alpha 88.77(1)
_cell_angle_beta 89.22(1)
_cell_angle_gamma 87.11(1)
_cell_volume 432.09
_cell_formula_units_Z 1
_space_group_name_H-M_alt 'P -1'
_space_group_IT_number 2
loop_
_space_group_symop_id
_space_group_symop_operation_xyz
1 '-x, -y, -z'
2 'x, y, z'
loop_
_atom_type_symbol
_atom_type_oxidation_number
Ba2+ 2
V3+ 3
P5+ 5
O2- -2
H1+ 1
loop_
_atom_site_label
_atom_site_type_symbol
_atom_site_symmetry_multiplicity
_atom_site_Wyckoff_symbol
_atom_site_fract_x
_atom_site_fract_y
_atom_site_fract_z
_atom_site_B_iso_or_equiv
_atom_site_occupancy
Ba1 Ba2+ 2 i 0.27170(5) 0.99446(3) 0.82236(2) 0.741(10) 1.
V1 V3+ 1 b 0 0 0.5 0.53(3) 1.
V2 V3+ 2 i 0.28267(13) 0.50513(8) 0.79690(6) 0.453(22) 1.
P1 P5+ 2 i 0.81889(20) 0.29426(12) 0.94863(9) 0.47(3) 1.
P2 P5+ 2 i 0.7664(2) 0.69706(13) 0.65728(9) 0.53(3) 1.
P3 P5+ 2 i 0.47264(20) 0.24363(12) 0.57447(9) 0.51(3) 1.
O1 O2- 2 i 0.0818(6) 0.3190(4) 0.8750(3) 0.76(10) 1.
O2 O2- 2 i 0.5922(6) 0.4331(4) 0.9115(3) 0.82(10) 1.
O3 O2- 2 i 0.7304(6) 0.1148(4) 0.9297(3) 0.95(10) 1.
O4 O2- 2 i 0.8624(6) 0.3197(4) 0.08107(25) 0.76(10) 1.
O5 O2- 2 i 0.8651(6) 0.8783(4) 0.6524(3) 0.79(10) 1.
O6 O2- 2 i -.0131(6) 0.5647(4) 0.6909(3) 0.91(10) 1.
O7 O2- 2 i 0.3234(6) 0.3552(4) 0.4720(3) 0.8(1) 1.
O8 O2- 2 i 0.5088(6) 0.6941(4) 0.7373(3) 0.80(9) 1.
O9 O2- 2 i 0.3036(6) 0.0853(4) 0.5924(3) 0.76(9) 1.
O10 O2- 2 i 0.7662(6) 0.2028(4) 0.5352(3) 0.87(10) 1.
O11 O2- 2 i 0.4583(6) 0.3420(4) 0.6867(3) 0.93(10) 1.
H1 H1+ 1 e 0.5 0.5 0 3.9(1) 1.
#End of TTdata_73924-ICSD
#
