(C) 2022 by FIZ Karlsruhe - Leibniz Institute for Information Infrastructure.  All rights reserved.
data_759795-ICSD
_database_code_ICSD 759795
_audit_creation_date 2020-02-01
_chemical_name_common 'Lithium iodide dihydrate'
_chemical_formula_structural 'Li I (H2 O)2'
_chemical_formula_sum 'H4 I1 Li1 O2'
_chemical_name_structure_type NaI(H2O)2
_exptl_crystal_density_diffrn 2.67
_diffrn_ambient_temperature 200.
_citation_title
'Higher hydrates of lithium chloride, lithium bromide and lithium iodide'
loop_
_citation_id
_citation_journal_full
_citation_year
_citation_journal_volume
_citation_page_first
_citation_page_last
_citation_journal_id_ASTM
primary 'Acta Crystallographica, Section C: Structural Chemistry' 2018 74 194
202 ACSCGG
loop_
_citation_author_citation_id
_citation_author_name
primary 'Sohr, Julia'
primary 'Schmidt, Horst'
primary 'Voigt, Wolfgang'
_cell_length_a 5.454(3)
_cell_length_b 6.842(2)
_cell_length_c 6.970(2)
_cell_angle_alpha 61.90(11)
_cell_angle_beta 80.72(12)
_cell_angle_gamma 67.02(13)
_cell_volume 211.14
_cell_formula_units_Z 2
_space_group_name_H-M_alt 'P -1'
_space_group_IT_number 2
loop_
_space_group_symop_id
_space_group_symop_operation_xyz
1 '-x, -y, -z'
2 'x, y, z'
loop_
_atom_type_symbol
_atom_type_oxidation_number
I1- -1
Li1+ 1
O2- -2
H1+ 1
loop_
_atom_site_label
_atom_site_type_symbol
_atom_site_symmetry_multiplicity
_atom_site_Wyckoff_symbol
_atom_site_fract_x
_atom_site_fract_y
_atom_site_fract_z
_atom_site_U_iso_or_equiv
_atom_site_occupancy
I1 I1- 2 i 0.25309(15) 0.13252(13) 0.22338(12) 0.0267(4) 1
Li1 Li1+ 2 i 0.297(6) 0.406(6) 0.480(5) 0.040(6) 1
O1 O2- 2 i -0.015(2) 0.7067(18) 0.3080(17) 0.028(2) 1
O2 O2- 2 i 0.606(2) 0.4825(19) 0.3072(18) 0.028(2) 1
H1 H1+ 2 i -0.02(3) 0.71(3) 0.188(12) 0.02(4) 1
H2 H1+ 2 i 0.06(4) 0.80(3) 0.29(3) 0.06(8) 1
H3 H1+ 2 i 0.57(10) 0.61(2) 0.19(3) 0.2(3) 1
H4 H1+ 2 i 0.71(2) 0.38(2) 0.27(3) 0.03(5) 1
loop_
_atom_site_aniso_label
_atom_site_aniso_type_symbol
_atom_site_aniso_U_11
_atom_site_aniso_U_22
_atom_site_aniso_U_33
_atom_site_aniso_U_12
_atom_site_aniso_U_13
_atom_site_aniso_U_23
I1 I1- 0.0310(6) 0.0159(6) 0.0242(6) -0.0008(4) -0.0024(4) -0.0071(4)
Li1 Li1+ 0.044(15) 0.058(19) 0.038(14) -0.028(14) 0.015(12) -0.034(14)
O1 O2- 0.032(5) 0.022(5) 0.028(5) -0.006(4) -0.001(4) -0.012(4)
O2 O2- 0.029(5) 0.020(5) 0.031(5) -0.004(4) 0.005(4) -0.012(4)
#End of TTdata_759795-ICSD
#
