(C) 2022 by FIZ Karlsruhe - Leibniz Institute for Information Infrastructure.  All rights reserved.
data_203091-ICSD
_database_code_ICSD 203091
_audit_creation_date 1990-12-27
_audit_update_record 2011-02-01
_chemical_name_common 'Dirubidium oxovanadium(IV) diphosphate(V)'
_chemical_formula_structural 'Rb2 (V O) (P2 O7)'
_chemical_formula_sum 'O8 P2 Rb2 V1'
_chemical_name_structure_type Rb2VOP2O7
_exptl_crystal_density_diffrn 3.28
_citation_title
'M2 V O P2 O7 (M = Rb, Cs): Two vanadyl pyrophosphates with a layer structure'
loop_
_citation_id
_citation_journal_full
_citation_year
_citation_journal_volume
_citation_page_first
_citation_page_last
_citation_journal_id_ASTM
primary 'Journal of Solid State Chemistry' 1989 82 239 246 JSSCBI
loop_
_citation_author_citation_id
_citation_author_name
primary 'Lii, K.-H.'
primary 'Wang, S.-L.'
_cell_length_a 7.101(1)
_cell_length_b 9.174(2)
_cell_length_c 12.801(4)
_cell_angle_alpha 90.
_cell_angle_beta 90.
_cell_angle_gamma 90.
_cell_volume 833.92
_cell_formula_units_Z 4
_space_group_name_H-M_alt 'P 21 21 21'
_space_group_IT_number 19
loop_
_space_group_symop_id
_space_group_symop_operation_xyz
1 '-x, y+1/2, -z+1/2'
2 'x+1/2, -y+1/2, -z'
3 '-x+1/2, -y, z+1/2'
4 'x, y, z'
loop_
_atom_type_symbol
_atom_type_oxidation_number
Rb1+ 1
V4+ 4
P5+ 5
O2- -2
loop_
_atom_site_label
_atom_site_type_symbol
_atom_site_symmetry_multiplicity
_atom_site_Wyckoff_symbol
_atom_site_fract_x
_atom_site_fract_y
_atom_site_fract_z
_atom_site_B_iso_or_equiv
_atom_site_occupancy
Rb1 Rb1+ 4 a -.2268(2) -.1753(2) -.5947(1) . 1.
Rb2 Rb1+ 4 a -.2697(2) -.3918(2) -.9056(1) . 1.
V1 V4+ 4 a -.2481(3) -.2424(2) -1.1943(2) . 1.
P1 P5+ 4 a 0.0095(4) -.5252(4) -1.1510(3) . 1.
P2 P5+ 4 a -.0848(5) -.0109(4) -.8399(3) . 1.
O1 O2- 4 a -.1233(13) -.4341(11) -1.2165(9) . 1.
O2 O2- 4 a -.1827(17) -.1935(12) -1.0803(9) . 1.
O3 O2- 4 a -.0513(15) -.5569(13) -1.0415(8) . 1.
O4 O2- 4 a -.0540(13) -.1649(10) -1.2883(8) . 1.
O5 O2- 4 a 0.0122(14) -.1539(10) -.8174(9) . 1.
O6 O2- 4 a 0.2004(13) -.4289(10) -1.1489(8) . 1.
O7 O2- 4 a -.0841(14) 0.0798(11) -.7402(9) . 1.
O8 O2- 4 a -.0286(16) 0.0694(15) -.9345(9) . 1.
loop_
_atom_site_aniso_label
_atom_site_aniso_type_symbol
_atom_site_aniso_U_11
_atom_site_aniso_U_22
_atom_site_aniso_U_33
_atom_site_aniso_U_12
_atom_site_aniso_U_13
_atom_site_aniso_U_23
Rb1 Rb1+ 0.0226(8) 0.0231(7) 0.0185(8) -.0064(7) -.0010(7) -.0017(6)
Rb2 Rb1+ 0.0224(7) 0.0212(7) 0.0170(7) 0.0033(6) 0.0068(7) 0.0007(6)
V1 V4+ 0.009(1) 0.0116(9) 0.0081(10) -.0037(11) 0.002(1) 0.0018(9)
P1 P5+ 0.0065(14) 0.0087(13) 0.0105(18) -.0023(15) 0.0007(15) -.0027(14)
P2 P5+ 0.0073(14) 0.0105(16) 0.0149(20) 0.0018(15) 0.0005(15) -.0009(16)
O1 O2- 0.0166(49) 0.0120(43) 0.0258(63) -.0048(43) -.0060(49) 0.0024(46)
O2 O2- 0.0270(56) 0.0300(58) 0.0157(59) -.0043(53) -.0011(52) 0.002(5)
O3 O2- 0.0221(53) 0.0233(51) 0.0141(57) -.0038(55) 0.0103(48) 0.0021(51)
O4 O2- 0.0184(49) 0.0139(46) 0.0182(55) 0.0027(46) 0.0092(47) 0.0054(46)
O5 O2- 0.0143(48) 0.0115(45) 0.0405(73) 0.0058(46) -.0120(58) -.0056(49)
O6 O2- 0.0087(38) 0.0150(42) 0.0155(54) -.0023(39) -.0012(43) -.0112(43)
O7 O2- 0.0117(42) 0.0244(55) 0.0327(71) 0.0106(48) -.0072(52) -.0142(55)
O8 O2- 0.0271(58) 0.0406(67) 0.0201(62) -.0084(62) 0.0064(56) 0.0129(60)
#End of TTdata_203091-ICSD
#
