(C) 2022 by FIZ Karlsruhe - Leibniz Institute for Information Infrastructure.  All rights reserved.
data_419783-ICSD
_database_code_ICSD 419783
_audit_creation_date 2009-02-01
_audit_update_record 2014-08-01
_chemical_name_common 'Trirubidium diuranium(V,VI) tetraoxide digermanate'
_chemical_formula_structural 'Rb3 (U2 O4) (Ge2 O7)'
_chemical_formula_sum 'Ge2 O11 Rb3 U2'
_chemical_name_structure_type Rb3U2O4Ge2O7
_exptl_crystal_density_diffrn 5.42
_diffrn_ambient_temperature 293.
_citation_title
'A3 (U2 O4) (Ge2 O7) (A = Rb, Cs): Mixed-valence uranium(V,VI) germanates'
loop_
_citation_id
_citation_journal_full
_citation_year
_citation_journal_volume
_citation_page_first
_citation_page_last
_citation_journal_id_ASTM
primary 'Angewandte Chemie, International Edition' 2008 47 8711 8713 ACIEF5
loop_
_citation_author_citation_id
_citation_author_name
primary 'Lin Chiahui'
primary 'Lii Kwanghwa'
_cell_length_a 6.9755(5)
_cell_length_b 12.2284(8)
_cell_length_c 15.3991(10)
_cell_angle_alpha 90.
_cell_angle_beta 100.5600(10)
_cell_angle_gamma 90.
_cell_volume 1291.28
_cell_formula_units_Z 4
_space_group_name_H-M_alt 'P 1 21/n 1'
_space_group_IT_number 14
loop_
_space_group_symop_id
_space_group_symop_operation_xyz
1 '-x+1/2, y+1/2, -z+1/2'
2 '-x, -y, -z'
3 'x+1/2, -y+1/2, z+1/2'
4 'x, y, z'
loop_
_atom_type_symbol
_atom_type_oxidation_number
Rb1+ 1
U6+ 5.5
Ge4+ 4
O2- -2
loop_
_atom_site_label
_atom_site_type_symbol
_atom_site_symmetry_multiplicity
_atom_site_Wyckoff_symbol
_atom_site_fract_x
_atom_site_fract_y
_atom_site_fract_z
_atom_site_U_iso_or_equiv
_atom_site_occupancy
Rb1 Rb1+ 4 e -0.88689(9) 0.15857(5) 0.66232(5) 0.02151(15) 1
Rb2 Rb1+ 4 e -0.58348(10) -0.67283(5) 0.42445(5) 0.02309(15) 1
Rb3 Rb1+ 4 e -0.92157(12) -0.15181(6) 0.59045(5) 0.02928(17) 1
U1 U6+ 2 d 0. 0.5 0.5 0.00637(8) 1
U2 U6+ 2 c -0.5 0. 0.5 0.00566(8) 1
U3 U6+ 4 e -0.60277(3) 0.056974(16) 0.243701(12) 0.00508(7) 1
Ge1 Ge4+ 4 e -0.37723(9) -0.42765(5) 0.32457(4) 0.00662(12) 1
Ge2 Ge4+ 4 e -0.61569(9) -0.20802(5) 0.34086(4) 0.00684(13) 1
O1 O2- 4 e -0.2839(7) -0.5210(3) 0.4051(3) 0.0133(9) 1
O2 O2- 4 e -0.5843(6) -0.4761(4) 0.2531(3) 0.0115(8) 1
O3 O2- 4 e -0.2026(6) -0.3933(4) 0.2607(3) 0.0135(9) 1
O4 O2- 4 e -0.4326(6) -0.3068(3) 0.3783(3) 0.0129(8) 1
O5 O2- 4 e -0.8182(6) -0.2708(3) 0.2786(3) 0.0108(8) 1
O6 O2- 4 e -0.6703(6) -0.1449(4) 0.4347(3) 0.0137(9) 1
O7 O2- 4 e -0.5197(6) -0.1150(3) 0.2740(3) 0.0141(9) 1
O8 O2- 4 e 0.0430(7) 0.3525(4) 0.4976(3) 0.0146(9) 1
O9 O2- 4 e 0.1552(7) 0.5218(4) 0.3859(3) 0.0138(9) 1
O10 O2- 4 e -0.7321(7) 0.0521(3) 0.5242(3) 0.0140(9) 1
O11 O2- 4 e -0.5455(7) 0.0942(3) 0.3756(3) 0.0139(9) 1
loop_
_atom_site_aniso_label
_atom_site_aniso_type_symbol
_atom_site_aniso_U_11
_atom_site_aniso_U_22
_atom_site_aniso_U_33
_atom_site_aniso_U_12
_atom_site_aniso_U_13
_atom_site_aniso_U_23
Rb1 Rb1+ 0.0162(3) 0.0192(3) 0.0314(4) -0.0002(2) 0.0102(3) -0.0080(3)
Rb2 Rb1+ 0.0254(3) 0.0139(3) 0.0329(4) 0.0010(2) 0.0130(3) 0.0013(3)
Rb3 Rb1+ 0.0358(4) 0.0253(4) 0.0222(3) -0.0076(3) -0.0066(3) -0.0036(3)
U1 U6+ 0.00906(15) 0.00533(15) 0.00455(14) 0.00119(9) 0.00076(11) 0.00097(10)
U2 U6+ 0.00939(15) 0.00436(15) 0.00300(14) 0.00097(9) 0.00055(10) -0.00072(9)
U3 U6+ 0.00690(11) 0.00471(11) 0.00343(11) 0.00019(7) 0.00047(7) 0.00047(7)
Ge1 Ge4+ 0.0067(3) 0.0060(3) 0.0069(3) 0.0011(2) 0.0005(2) 0.0004(2)
Ge2 Ge4+ 0.0089(3) 0.0036(3) 0.0076(3) -0.0001(2) 0.0005(2) -0.0019(2)
O1 O2- 0.014(2) 0.0099(19) 0.014(2) -0.0025(16) -0.0050(17) 0.0062(17)
O2 O2- 0.011(2) 0.012(2) 0.010(2) -0.0008(16) -0.0017(16) -0.0068(17)
O3 O2- 0.008(2) 0.017(2) 0.016(2) -0.0009(16) 0.0027(16) 0.0007(17)
O4 O2- 0.013(2) 0.010(2) 0.014(2) 0.0038(16) -0.0010(17) -0.0043(17)
O5 O2- 0.0065(19) 0.0092(19) 0.015(2) -0.0018(15) -0.0023(16) -0.0035(16)
O6 O2- 0.020(2) 0.011(2) 0.011(2) -0.0010(17) 0.0045(17) -0.0048(16)
O7 O2- 0.014(2) 0.010(2) 0.017(2) -0.0002(16) 0.0023(17) 0.0071(17)
O8 O2- 0.015(2) 0.011(2) 0.017(2) -0.0011(17) 0.0006(18) 0.0005(17)
O9 O2- 0.016(2) 0.019(2) 0.0053(19) -0.0014(18) 0.0007(16) 0.0023(17)
O10 O2- 0.015(2) 0.011(2) 0.016(2) 0.0045(16) 0.0035(17) -0.0017(17)
O11 O2- 0.023(2) 0.010(2) 0.0068(19) -0.0018(17) -0.0014(17) -0.0004(17)
#End of TTdata_419783-ICSD
#
