(C) 2022 by FIZ Karlsruhe - Leibniz Institute for Information Infrastructure.  All rights reserved.
data_261645-ICSD
_database_code_ICSD 261645
_audit_creation_date 2012-02-01
_chemical_name_common 'Dicesium uranium(IV) hexasilicate'
_chemical_formula_structural 'Cs2 U Si6 O15'
_chemical_formula_sum 'Cs2 O15 Si6 U1'
_chemical_name_structure_type Cs2USi6O15
_exptl_crystal_density_diffrn 3.79
_diffrn_ambient_temperature 296.
_citation_title 'Cs2 U Si6 O15: A tetravalent uranium silicate'
loop_
_citation_id
_citation_journal_full
_citation_year
_citation_journal_volume
_citation_page_first
_citation_page_last
_citation_journal_id_ASTM
primary 'Inorganic Chemistry' 2011 50 5870 5872 INOCAJ
loop_
_citation_author_citation_id
_citation_author_name
primary 'Liu Hsinkuan'
primary 'Lii Kwanghwa'
_cell_length_a 7.2717(3)
_cell_length_b 16.3061(7)
_cell_length_c 13.4983(6)
_cell_angle_alpha 90.
_cell_angle_beta 90.
_cell_angle_gamma 90.
_cell_volume 1600.53
_cell_formula_units_Z 4
_space_group_name_H-M_alt 'C m c 21'
_space_group_IT_number 36
loop_
_space_group_symop_id
_space_group_symop_operation_xyz
1 'x, -y, z+1/2'
2 '-x, -y, z+1/2'
3 '-x, y, z'
4 'x, y, z'
5 'x+1/2, -y+1/2, z+1/2'
6 '-x+1/2, -y+1/2, z+1/2'
7 '-x+1/2, y+1/2, z'
8 'x+1/2, y+1/2, z'
loop_
_atom_type_symbol
_atom_type_oxidation_number
Cs1+ 1
U4+ 4
Si4+ 4
O2- -2
loop_
_atom_site_label
_atom_site_type_symbol
_atom_site_symmetry_multiplicity
_atom_site_Wyckoff_symbol
_atom_site_fract_x
_atom_site_fract_y
_atom_site_fract_z
_atom_site_U_iso_or_equiv
_atom_site_occupancy
Cs1 Cs1+ 4 a 0.5 -0.38924(4) -0.32646(5) 0.03610(17) 1
Cs2 Cs1+ 4 a 0.5 -0.27798(5) -0.63197(5) 0.0471(2) 1
U1 U4+ 4 a 0.5 -0.131386(16) 0.01773(2) 0.01457(8) 1
Si1 Si4+ 4 a 0.5 -0.14283(12) -0.25078(16) 0.0105(4) 1
Si2 Si4+ 8 b 0.7066(2) -0.31581(11) 0.09391(13) 0.0209(4) 1
Si3 Si4+ 8 b 0.7834(2) 0.04273(11) -0.05785(14) 0.0233(4) 1
Si4 Si4+ 4 a 0.5 0.04661(16) -0.22836(19) 0.0155(5) 1
O1 O2- 4 a 0.5 -0.1704(4) -0.1390(5) 0.0316(16) 1
O2 O2- 8 b 0.6740(8) -0.1804(4) -0.3058(4) 0.061(2) 1
O3 O2- 4 a 0.5 -0.0455(5) -0.2637(6) 0.049(2) 1
O4 O2- 8 b 0.7187(5) -0.2264(2) 0.0477(3) 0.0252(11) 1
O5 O2- 8 b 0.7758(5) -0.3838(2) 0.0159(6) 0.0353(10) 1
O6 O2- 4 a 0.5 -0.3381(4) 0.1296(5) 0.0233(13) 1
O7 O2- 8 b 0.7302(8) -0.0441(3) -0.0130(3) 0.0430(14) 1
O8 O2- 4 a 1. 0.0506(4) -0.0836(5) 0.0273(15) 1
O9 O2- 8 b 0.6791(7) 0.0615(4) -0.1613(4) 0.0486(16) 1
O10 O2- 4 a 0.5 0.1075(4) -0.3178(5) 0.0329(16) 1
loop_
_atom_site_aniso_label
_atom_site_aniso_type_symbol
_atom_site_aniso_U_11
_atom_site_aniso_U_22
_atom_site_aniso_U_33
_atom_site_aniso_U_12
_atom_site_aniso_U_13
_atom_site_aniso_U_23
Cs1 Cs1+ 0.0330(3) 0.0460(4) 0.0293(3) 0. 0. 0.0112(3)
Cs2 Cs1+ 0.0520(4) 0.0672(5) 0.0219(3) 0. 0. -0.0085(3)
U1 U4+ 0.02685(15) 0.00825(12) 0.00861(12) 0. 0. 0.00046(17)
Si1 Si4+ 0.0106(9) 0.0112(11) 0.0098(10) 0. 0. -0.0018(8)
Si2 Si4+ 0.0175(8) 0.0197(9) 0.0255(9) 0.0056(7) -0.0124(7) -0.0012(7)
Si3 Si4+ 0.0352(9) 0.0187(9) 0.0159(8) -0.0158(8) -0.0031(8) 0.0016(7)
Si4 Si4+ 0.0240(11) 0.0112(12) 0.0114(12) 0. 0. 0.0013(9)
O1 O2- 0.070(5) 0.018(3) 0.007(3) 0. 0. -0.004(3)
O2 O2- 0.063(4) 0.061(4) 0.060(4) 0.038(3) 0.048(3) 0.022(3)
O3 O2- 0.112(7) 0.011(4) 0.024(5) 0. 0. 0.003(3)
O4 O2- 0.0160(19) 0.020(2) 0.040(3) -0.0047(17) -0.0001(18) 0.0011(18)
O5 O2- 0.026(2) 0.033(2) 0.047(3) 0.0125(17) -0.006(3) -0.014(3)
O6 O2- 0.026(3) 0.024(3) 0.020(3) 0. 0. 0.008(3)
O7 O2- 0.077(4) 0.025(2) 0.027(3) -0.032(3) 0.004(2) 0.0028(19)
O8 O2- 0.037(3) 0.024(3) 0.021(4) 0. 0. 0.006(3)
O9 O2- 0.050(3) 0.068(4) 0.027(3) -0.040(3) -0.016(2) 0.018(3)
O10 O2- 0.071(5) 0.021(3) 0.006(3) 0. 0. 0.003(3)
#End of TTdata_261645-ICSD
#
