(C) 2022 by FIZ Karlsruhe - Leibniz Institute for Information Infrastructure.  All rights reserved.
data_202981-ICSD
_database_code_ICSD 202981
_audit_creation_date 1990-06-08
_chemical_name_common 'Chromium tetraphosphate'
_chemical_formula_structural 'Cr2 P4 O13'
_chemical_formula_sum 'Cr2 O13 P4'
_exptl_crystal_density_diffrn 3.22
_citation_title 'Crystal Structure of the Tetrapolyphosphate Cr2 P4 O13'
loop_
_citation_id
_citation_journal_full
_citation_year
_citation_journal_volume
_citation_page_first
_citation_page_last
_citation_journal_id_ASTM
primary 'Journal of Solid State Chemistry' 1989 82 156 160 JSSCBI
loop_
_citation_author_citation_id
_citation_author_name
primary 'Lii, K.-H.'
primary 'Chen, Y.B.'
primary 'Su, C.-C.'
primary 'Wang, S.-L.'
_cell_length_a 8.097(2)
_cell_length_b 8.787(3)
_cell_length_c 13.098(4)
_cell_angle_alpha 90.
_cell_angle_beta 105.54(2)
_cell_angle_gamma 90.
_cell_volume 897.83
_cell_formula_units_Z 4
_space_group_name_H-M_alt 'P 1 21/c 1'
_space_group_IT_number 14
loop_
_space_group_symop_id
_space_group_symop_operation_xyz
1 'x, -y+1/2, z+1/2'
2 '-x, -y, -z'
3 '-x, y+1/2, -z+1/2'
4 'x, y, z'
loop_
_atom_type_symbol
_atom_type_oxidation_number
Cr3+ 3
P5+ 5
O2- -2
loop_
_atom_site_label
_atom_site_type_symbol
_atom_site_symmetry_multiplicity
_atom_site_Wyckoff_symbol
_atom_site_fract_x
_atom_site_fract_y
_atom_site_fract_z
_atom_site_B_iso_or_equiv
_atom_site_occupancy
Cr1 Cr3+ 4 e 0.9579(1) -.0026(1) 0.2788(1) . 1.
Cr2 Cr3+ 4 e 0.5623(1) 0.0033(1) 0.2613(1) . 1.
P1 P5+ 4 e 0.5016(1) 0.2523(1) -.0671(1) . 1.
P2 P5+ 4 e 0.1330(1) 0.2428(1) -.0690(1) . 1.
P3 P5+ 4 e 0.7140(1) 0.2767(1) 0.1580(1) . 1.
P4 P5+ 4 e 0.2146(1) 0.1988(1) 0.1610(1) . 1.
O1 O2- 4 e 0.1185(3) 0.1723(3) 0.0397(2) . 1.
O2 O2- 4 e 0.3261(4) 0.3050(3) -.0440(2) . 1.
O3 O2- 4 e 0.6178(3) 0.2077(3) 0.0451(2) . 1.
O4 O2- 4 e 0.7485(3) 0.1294(3) 0.2255(2) . 1.
O5 O2- 4 e 0.7771(3) -.1242(3) 0.3245(2) . 1.
O6 O2- 4 e 0.5827(4) 0.1173(3) 0.3929(2) . 1.
O7 O2- 4 e 0.5325(4) -.1106(3) 0.1302(2) . 1.
O8 O2- 4 e 1.1235(3) -.1508(3) 0.3517(2) . 1.
O9 O2- 4 e 0.8962(4) -.1133(3) 0.1441(2) . 1.
O10 O2- 4 e 0.3929(3) 0.1395(3) 0.1798(2) . 1.
O11 O2- 4 e 1.0169(3) 0.1231(3) 0.4067(2) . 1.
O12 O2- 4 e 0.3997(4) -.1184(3) 0.3045(2) . 1.
O13 O2- 4 e 1.1131(3) 0.1217(3) 0.2249(2) . 1.
loop_
_atom_site_aniso_label
_atom_site_aniso_type_symbol
_atom_site_aniso_U_11
_atom_site_aniso_U_22
_atom_site_aniso_U_33
_atom_site_aniso_U_12
_atom_site_aniso_U_13
_atom_site_aniso_U_23
Cr1 Cr3+ 0.0034(3) 0.0047(2) 0.0048(2) 0.0002(2) 0.0014(2) -.0001(1)
Cr2 Cr3+ 0.0035(3) 0.0044(2) 0.0059(2) 0.0003(2) 0.0015(2) 0.0002(2)
P1 P5+ 0.0047(5) 0.0070(4) 0.0045(3) -.0002(3) 0.0009(3) -.0005(4)
P2 P5+ 0.0052(5) 0.0065(4) 0.0040(4) -.0002(3) 0.0006(3) -.0001(4)
P3 P5+ 0.0043(5) 0.0044(4) 0.0051(3) 0.0005(3) 0.0013(3) 0.0001(3)
P4 P5+ 0.0041(5) 0.0046(4) 0.0041(3) -.0002(3) 0.0010(3) -.0001(3)
O1 O2- 0.010(1) 0.006(1) 0.006(1) 0.0013(9) 0.001(1) -.002(1)
O2 O2- 0.006(1) 0.010(1) 0.013(1) -.003(1) 0.004(1) -.001(1)
O3 O2- 0.011(1) 0.009(1) 0.006(1) 0.0004(9) -.001(1) -.001(1)
O4 O2- 0.004(1) 0.006(1) 0.008(1) 0.0023(9) 0.0009(9) 0.0000(1)
O5 O2- 0.006(1) 0.004(1) 0.009(1) 0.0009(9) 0.003(1) -.001(1)
O6 O2- 0.012(2) 0.012(1) 0.010(1) -.003(1) 0.005(1) 0.004(1)
O7 O2- 0.012(2) 0.009(1) 0.010(1) -.005(1) 0.003(1) -.001(1)
O8 O2- 0.006(1) 0.007(1) 0.011(1) 0.002(1) 0.003(1) 0.002(1)
O9 O2- 0.011(2) 0.010(1) 0.006(1) -.0031(9) 0.003(1) -.002(1)
O10 O2- 0.005(1) 0.009(1) 0.012(1) 0.003(1) 0.001(1) 0.004(1)
O11 O2- 0.008(1) 0.008(1) 0.007(1) -.0024(9) 0.002(1) -.003(1)
O12 O2- 0.010(2) 0.008(2) 0.021(1) 0.002(1) 0.009(1) -.002(1)
O13 O2- 0.010(2) 0.007(1) 0.010(1) 0.000(1) 0.006(1) -.001(1)
#End of TTdata_202981-ICSD
#
