(C) 2022 by FIZ Karlsruhe - Leibniz Institute for Information Infrastructure.  All rights reserved.
data_203092-ICSD
_database_code_ICSD 203092
_audit_creation_date 1990-12-27
_audit_update_record 2011-02-01
_chemical_name_common 'Dicesium oxovanadium(IV) diphosphate(V)'
_chemical_formula_structural 'Cs2 (V O) (P2 O7)'
_chemical_formula_sum 'Cs2 O8 P2 V1'
_chemical_name_structure_type Cs2VO(P2O7)
_exptl_crystal_density_diffrn 3.67
_citation_title
'M2 V O P2 O7 (M = Rb, Cs): Two vanadyl pyrophosphates with a layer structure'
loop_
_citation_id
_citation_journal_full
_citation_year
_citation_journal_volume
_citation_page_first
_citation_page_last
_citation_journal_id_ASTM
primary 'Journal of Solid State Chemistry' 1989 82 239 246 JSSCBI
loop_
_citation_author_citation_id
_citation_author_name
primary 'Lii, K.-H.'
primary 'Wang, S.-L.'
_cell_length_a 13.280(3)
_cell_length_b 7.247(2)
_cell_length_c 9.518(2)
_cell_angle_alpha 90.
_cell_angle_beta 90.
_cell_angle_gamma 90.
_cell_volume 916.01
_cell_formula_units_Z 4
_space_group_name_H-M_alt 'P n m a'
_space_group_IT_number 62
loop_
_space_group_symop_id
_space_group_symop_operation_xyz
1 'x+1/2, y, -z+1/2'
2 'x, -y+1/2, z'
3 '-x+1/2, y+1/2, z+1/2'
4 '-x, -y, -z'
5 '-x+1/2, -y, z+1/2'
6 '-x, y+1/2, -z'
7 'x+1/2, -y+1/2, -z+1/2'
8 'x, y, z'
loop_
_atom_type_symbol
_atom_type_oxidation_number
Cs1+ 1
V4+ 4
P5+ 5
O2- -2
loop_
_atom_site_label
_atom_site_type_symbol
_atom_site_symmetry_multiplicity
_atom_site_Wyckoff_symbol
_atom_site_fract_x
_atom_site_fract_y
_atom_site_fract_z
_atom_site_B_iso_or_equiv
_atom_site_occupancy
Cs1 Cs1+ 4 c 0.40106(4) 0.25 0.91755(6) . 1.
Cs2 Cs1+ 4 c 0.09610(4) 0.25 0.12812(6) . 1.
V1 V4+ 4 c 0.2873(1) 0.25 0.4868(1) . 1.
P1 P5+ 8 d 0.1582(1) 0.0473(2) 0.7341(1) . 1.
O1 O2- 4 c 0.3988(5) 0.25 -.4519(8) . 1.
O2 O2- 8 d 0.2209(4) -.0653(7) 0.8366(4) . 1.
O3 O2- 8 d 0.0530(4) -.0132(7) 0.7133(5) . 1.
O4 O2- 8 d 0.2166(4) 0.0643(6) -.4042(4) . 1.
O5 O2- 4 c 0.1613(6) 0.25 -.1954(6) . 1.
loop_
_atom_site_aniso_label
_atom_site_aniso_type_symbol
_atom_site_aniso_U_11
_atom_site_aniso_U_22
_atom_site_aniso_U_33
_atom_site_aniso_U_12
_atom_site_aniso_U_13
_atom_site_aniso_U_23
Cs1 Cs1+ 0.0212(3) 0.0195(4) 0.0295(3) 0 0.0056(2) 0
Cs2 Cs1+ 0.0181(3) 0.0270(4) 0.0279(3) 0 0.0025(2) 0
V1 V4+ 0.0175(7) 0.0099(7) 0.0145(6) 0 0.0026(5) 0
P1 P5+ 0.0170(7) 0.0069(7) 0.0134(5) -.0007(6) 0.0008(5) 0.0022(5)
O1 O2- 0.0130(32) 0.0686(66) 0.0363(37) 0 -.0046(26) 0
O2 O2- 0.0402(27) 0.0193(23) 0.0262(19) -.0011(24) -.011(2) 0.0095(19)
O3 O2- 0.0188(23) 0.0258(29) 0.0598(32) -.0027(22) 0.0003(22) 0.0089(25)
O4 O2- 0.0434(28) 0.012(2) 0.0214(18) -.0026(23) 0.0156(19) -.0009(17)
O5 O2- 0.0636(53) 0.0080(29) 0.0170(25) 0 0.0142(29) 0
#End of TTdata_203092-ICSD
#
