(C) 2022 by FIZ Karlsruhe - Leibniz Institute for Information Infrastructure.  All rights reserved.
data_280448-ICSD
_database_code_ICSD 280448
_audit_creation_date 2002-04-01
_chemical_name_common
'Cesium oxovanadium phosphate(V) hydrogenphosphate(V) (5.29/10/4/8)'
_chemical_formula_structural 'Cs5.29 (V O)10 (P O4)4 (H P O4)8'
_chemical_formula_sum 'H8 Cs5.29 O58 P12 V10'
_exptl_crystal_density_diffrn 3.33
_diffrn_ambient_temperature 300.
_citation_title

;
Hydrothermal synthesis, thermal and magnetic data on new alkaline vanadium
phosphate hydrates My (V O)9+x (P O4)4x (H P O4)12-4x with M= Cs+ (y= 5.29,
x=1) and M= (N H4)+, Rb+ (y<=> 5, x<=> 1).
;
loop_
_citation_id
_citation_journal_full
_citation_year
_citation_journal_volume
_citation_page_first
_citation_page_last
_citation_journal_id_ASTM
primary 'Inorganic Chemistry' 2001 40 272 276 INOCAJ
loop_
_citation_author_citation_id
_citation_author_name
primary 'le Fur, E.'
primary 'de Villars, B.'
primary 'Tortelier, J.'
primary 'Pivan, J.Y.'
_cell_length_a 21.1950(50)
_cell_length_b 12.2051(8)
_cell_length_c 20.62299(40)
_cell_angle_alpha 90.
_cell_angle_beta 109.742(5)
_cell_angle_gamma 90.
_cell_volume 5021.33
_cell_formula_units_Z 4
_space_group_name_H-M_alt 'C 1 2/c 1'
_space_group_IT_number 15
loop_
_space_group_symop_id
_space_group_symop_operation_xyz
1 'x, -y, z+1/2'
2 '-x, -y, -z'
3 '-x, y, -z+1/2'
4 'x, y, z'
5 'x+1/2, -y+1/2, z+1/2'
6 '-x+1/2, -y+1/2, -z'
7 '-x+1/2, y+1/2, -z+1/2'
8 'x+1/2, y+1/2, z'
loop_
_atom_type_symbol
_atom_type_oxidation_number
Cs1+ 1
V4+ 4.27
P5+ 5
O2- -2
H1+ 1
loop_
_atom_site_label
_atom_site_type_symbol
_atom_site_symmetry_multiplicity
_atom_site_Wyckoff_symbol
_atom_site_fract_x
_atom_site_fract_y
_atom_site_fract_z
_atom_site_B_iso_or_equiv
_atom_site_occupancy
Cs1 Cs1+ 8 f 0.90839(5) 0.41093(8) -.03287(5) . 0.679(3)
Cs2 Cs1+ 8 f 0.75623(5) 0.58012(8) 0.02840(5) . 0.643(3)
Cs3 Cs1+ 8 f 0.05797(4) 0.07898(6) 0.43449(4) . 1.
Cs4 Cs1+ 8 f 0.16779(10) 0.5829(2) 0.25272(10) . 0.323(3)
V1 V4+ 4 d 0.75 0.25 0 . 1.
V2 V4+ 8 f 0.7830(3) 0.1635(5) -.1659(2) . 0.5
V3 V4+ 8 f 0.7899(3) 0.1664(5) -.1370(2) . 0.5
V4 V4+ 8 f 0.0366(7) 0.5787(12) 0.3595(4) . 0.5
V5 V4+ 8 f 0.0292(7) 0.5749(12) 0.3373(3) . 0.5
V6 V4+ 8 f 0.2254(5) 0.3380(9) 0.1616(3) . 0.5
V7 V4+ 8 f 0.2141(5) 0.3331(9) 0.1381(3) . 0.5
V8 V4+ 8 f 0.91412(9) 0.25237(13) 0.50047(8) . 1.
V9 V4+ 4 e 0 0.9209(4) 0.25 . 0.5
V10 V4+ 8 f 0.0815(3) 0.1648(5) 0.2493(3) . 0.25
P1 P5+ 8 f 0.62828(12) 0.7061(2) -.13706(12) . 1.
P2 P5+ 8 f 0.93712(12) 0.3622(2) 0.36453(12) . 1.
P3 P5+ 8 f 0.45035(12) 0.7074(2) -.13168(12) . 1.
P4 P5+ 8 f 0.72832(12) 0.4057(2) -.13533(12) . 1.
P5 P5+ 8 f 0.65117(12) 0.5906(2) 0.13046(12) . 1.
P6 P5+ 8 f 0.14065(12) 0.3658(2) 0.36955(12) . 1.
O1 O2- 8 f 0.7232(4) 0.3709(5) -.0662(3) . 1.
O2 O2- 8 f 0.6716(4) 0.1631(6) -.0539(3) . 1.
O3 O2- 8 f 0.8021(3) 0.1837(5) -.0520(3) . 1.
O4 O2- 8 f 0.6940(4) 0.4898(5) 0.1377(4) . 1.
O5 O2- 8 f 0.3778(3) 0.6999(6) -.1374(4) . 1.
O6 O2- 8 f 0.7655(3) 0.1492(5) -.2528(3) . 1.
O7 O2- 8 f 0.6930(3) 0.1310(6) -.1651(3) . 1.
O8 O2- 8 f 0.7672(4) 0.3219(5) -.1616(3) . 1.
O9 O2- 4 e 1 0.5471(7) 0.25 . 1.
O10 O2- 8 f 0.5659(3) 0.8793(6) -.0534(3) . 1.
O11 O2- 8 f 0.5902(4) 0.8088(6) -.1669(4) . 1.
O12 O2- 8 f 0.6069(4) 1.0240(6) -.1368(4) . 1.
O13 O2- 8 f 0.4615(4) 0.8175(5) -.1605(3) . 1.
O14 O2- 8 f 0.9780(4) 0.4647(6) 0.3698(4) . 1.
O15 O2- 8 f 0.6672(3) 0.8108(5) 0.0517(3) . 1.
O16 O2- 8 f 0.7616(4) 0.5156(5) -.1282(4) . 1.
O17 O2- 8 f 0.8636(3) 0.3928(6) 0.3407(4) . 1.
O18 O2- 8 f 0.6958(4) 0.6857(5) 0.1637(3) . 1.
O19 O2- 8 f 0.7008(3) 0.7179(6) -.1325(4) . 1.
O20 O2- 8 f 0.9585(3) 0.3028(6) 0.4341(3) . 1.
O21 O2- 8 f 0.6248(4) 0.6803(5) -.0656(3) . 1.
O22 O2- 8 f 0.6113(4) 0.6106(5) 0.0538(3) . 1.
O23 O2- 8 f 0.4945(3) 0.6926(5) -.0561(3) . 1.
O24 O2- 4 e 0 0.0546(19) 0.25 . 0.5
O25 O2- 8 f 0.0162(13) 0.1031(21) 0.2478(15) . 0.25
O26 O2- 8 f 0.5969(4) 0.6095(6) -.1861(4) . 1.
O27 O2- 8 f 0.9502(5) 0.2861(6) 0.3105(4) . 1.
O28 O2- 8 f 0.4673(4) 0.6139(6) -.1737(4) . 1.
O29 O2- 8 f 0.6565(4) 0.4166(7) -.1883(4) . 1.
O30 O2- 8 f 0.5999(4) 0.5756(7) 0.1690(4) . 1.
O31 O2- 8 f 0.0883(4) 0.2762(6) 0.3356(4) . 1.
loop_
_atom_site_aniso_label
_atom_site_aniso_type_symbol
_atom_site_aniso_U_11
_atom_site_aniso_U_22
_atom_site_aniso_U_33
_atom_site_aniso_U_12
_atom_site_aniso_U_13
_atom_site_aniso_U_23
Cs1 Cs1+ 0.0271(6) 0.0269(6) 0.0276(6) -.0006(4) 0.0112(4) -.0013(4)
Cs2 Cs1+ 0.0297(6) 0.0278(6) 0.0301(6) 0.0016(4) 0.0122(5) 0.0010(4)
Cs3 Cs1+ 0.0464(5) 0.0419(4) 0.0451(5) 0.0063(4) 0.0128(4) 0.0023(4)
Cs4 Cs1+ 0.0299(13) 0.0307(12) 0.0327(13) 0.0005(9) 0.0122(9) -.0005(9)
V1 V4+ 0.064(2) 0.0278(14) 0.0240(14) -.0266(14) -.0156(13) 0.0113(12)
V2 V4+ 0.011(2) 0.017(2) 0.011(3) 0.0012(14) 0.003(3) 0.001(3)
V3 V4+ 0.012(2) 0.013(2) 0.009(3) 0.0000(14) 0.004(3) 0.002(2)
V4 V4+ 0.014(3) 0.014(2) 0.013(4) 0.000(2) 0.005(4) 0.005(4)
V5 V4+ 0.012(3) 0.015(2) 0.015(4) 0.003(2) 0.006(4) 0.008(4)
V6 V4+ 0.007(3) 0.011(2) 0.009(4) 0.001(2) 0.000(3) 0.002(3)
V7 V4+ 0.009(3) 0.018(2) 0.009(4) 0.001(2) 0.000(3) 0.005(3)
V8 V4+ 0.0299(10) 0.0195(8) 0.0208(8) 0.0045(7) 0.0132(7) 0.0041(7)
V9 V4+ 0.023(3) 0.023(2) 0.027(3) 0 0.010(2) 0
V10 V4+ 0.017(3) 0.012(3) 0.019(3) -.002(2) 0.009(3) -.002(3)
P1 P5+ 0.0161(13) 0.0151(11) 0.0176(12) 0.0040(9) 0.0073(10) 0.0023(10)
P2 P5+ 0.0155(13) 0.0169(12) 0.0162(12) -.0016(10) 0.0053(10) 0.0007(10)
P3 P5+ 0.0139(13) 0.0185(12) 0.0174(12) -.0021(10) 0.0047(10) 0.0004(10)
P4 P5+ 0.0169(13) 0.0139(11) 0.0162(12) -.0017(10) 0.0063(10) -.0007(10)
P5 P5+ 0.0159(12) 0.0148(11) 0.0165(12) -.0006(10) 0.0041(10) 0.0003(10)
P6 P5+ 0.0163(13) 0.0188(12) 0.0188(12) 0.0051(10) 0.0078(10) 0.0044(10)
O1 O2- 0.056(5) 0.027(4) 0.025(4) 0.014(3) 0.028(4) 0.007(3)
O2 O2- 0.027(4) 0.056(5) 0.020(4) -.016(4) 0.011(3) -.015(3)
O3 O2- 0.020(4) 0.024(4) 0.020(3) 0.001(3) 0.001(3) 0.003(3)
O4 O2- 0.042(5) 0.012(3) 0.035(4) 0.010(3) 0.007(4) 0.002(3)
O5 O2- 0.011(4) 0.049(5) 0.037(4) -.008(3) 0.007(3) 0.000(4)
O6 O2- 0.018(4) 0.023(3) 0.021(3) 0.007(3) 0.006(3) 0.002(3)
O7 O2- 0.014(4) 0.052(5) 0.019(4) -.008(3) 0.008(3) -.009(3)
O8 O2- 0.055(5) 0.020(4) 0.030(4) 0.013(3) 0.030(4) 0.005(3)
O9 O2- 0.019(5) 0.018(5) 0.026(5) 0 0.002(4) 0
O10 O2- 0.025(4) 0.032(4) 0.029(4) -.004(3) 0.008(3) -.014(3)
O11 O2- 0.043(5) 0.029(4) 0.042(5) 0.019(3) 0.029(4) 0.009(3)
O12 O2- 0.032(4) 0.025(4) 0.049(5) -.017(3) 0.016(4) 0.001(3)
O13 O2- 0.030(4) 0.030(4) 0.022(4) -.020(3) -.001(3) 0.005(3)
O14 O2- 0.037(5) 0.036(4) 0.045(5) -.024(4) 0.016(4) 0.005(4)
O15 O2- 0.029(4) 0.028(4) 0.023(4) 0.003(3) 0.016(3) 0.005(3)
O16 O2- 0.057(5) 0.013(3) 0.041(5) -.006(3) 0.011(4) 0.001(3)
O17 O2- 0.011(4) 0.050(5) 0.042(4) 0.000(3) 0.005(3) 0.029(4)
O18 O2- 0.039(5) 0.022(4) 0.022(4) -.009(3) -.008(3) 0.003(3)
O19 O2- 0.017(4) 0.046(5) 0.048(5) 0.001(3) 0.017(3) -.012(4)
O20 O2- 0.016(4) 0.041(4) 0.019(3) 0.004(3) 0.005(3) 0.004(3)
O21 O2- 0.041(5) 0.023(4) 0.018(4) 0.012(3) 0.011(3) 0.002(3)
O22 O2- 0.038(4) 0.020(3) 0.017(3) -.001(3) 0.004(3) 0.005(3)
O23 O2- 0.026(4) 0.026(4) 0.019(3) -.002(3) 0.003(3) 0.004(3)
O24 O2- 0.028(6) 0.026(6) 0.026(6) 0 0.008(3) 0
O25 O2- 0.023(8) 0.024(7) 0.023(7) -.001(3) 0.008(4) 0.000(3)
O26 O2- 0.034(4) 0.032(4) 0.036(4) -.006(3) 0.006(4) -.018(3)
O27 O2- 0.078(7) 0.041(5) 0.034(4) 0.012(4) 0.032(5) -.011(4)
O28 O2- 0.041(5) 0.045(5) 0.033(4) 0.004(4) 0.011(4) -.022(4)
O29 O2- 0.024(4) 0.053(5) 0.046(5) -.001(4) -.007(4) 0.007(4)
O30 O2- 0.041(5) 0.052(5) 0.045(5) 0.003(4) 0.033(4) 0.006(4)
O31 O2- 0.031(5) 0.036(4) 0.072(6) -.011(4) 0.020(4) -.010(4)
#End of TTdata_280448-ICSD
#
