(C) 2022 by FIZ Karlsruhe - Leibniz Institute for Information Infrastructure.  All rights reserved.
data_249478-ICSD
_database_code_ICSD 249478
_audit_creation_date 2008-08-01
_chemical_name_common 'Pentapotassium triindium henicosaoxoheptasilicate'
_chemical_formula_structural 'K5 In3 Si7 O21'
_chemical_formula_sum 'In3 K5 O21 Si7'
_exptl_crystal_density_diffrn 3.3
_diffrn_ambient_temperature 23.
_citation_title

;
Flux synthesis, crystal structure, and solid-state NMR spectroscopy of two
indium silicates containing varied In-O coordination geometries
;
loop_
_citation_id
_citation_journal_full
_citation_year
_citation_journal_volume
_citation_page_first
_citation_page_last
_citation_journal_id_ASTM
primary 'Inorganic Chemistry' 2007 46 3301 3305 INOCAJ
loop_
_citation_author_citation_id
_citation_author_name
primary 'Hung Lingi'
primary 'Wang Sue Lein'
primary 'Kao Hsienming'
primary 'Lii Kwanghwa'
_cell_length_a 12.4914(3)
_cell_length_b 16.8849(3)
_cell_length_c 10.2275(2)
_cell_angle_alpha 90.
_cell_angle_beta 90.
_cell_angle_gamma 90.
_cell_volume 2157.14
_cell_formula_units_Z 4
_space_group_name_H-M_alt 'P n a 21'
_space_group_IT_number 33
loop_
_space_group_symop_id
_space_group_symop_operation_xyz
1 'x+1/2, -y+1/2, z'
2 '-x+1/2, y+1/2, z+1/2'
3 '-x, -y, z+1/2'
4 'x, y, z'
loop_
_atom_type_symbol
_atom_type_oxidation_number
K1+ 1
In3+ 3
Si4+ 4
O2- -2
loop_
_atom_site_label
_atom_site_type_symbol
_atom_site_symmetry_multiplicity
_atom_site_Wyckoff_symbol
_atom_site_fract_x
_atom_site_fract_y
_atom_site_fract_z
_atom_site_U_iso_or_equiv
_atom_site_occupancy
K1 K1+ 4 a 0.67562(9) 1.05266(6) 0.76492(14) 0.0360(3) 1
K2 K1+ 4 a 0.38556(8) 1.34581(6) 1.04201(10) 0.0230(2) 1
K3 K1+ 4 a 0.76401(8) 1.16038(7) 0.42958(11) 0.0300(2) 1
K4 K1+ 4 a 0.59342(8) 1.36517(6) 0.38682(10) 0.0257(2) 1
K5 K1+ 4 a 0.93365(8) 1.39560(8) 0.90718(11) 0.0332(3) 1
In1 In3+ 4 a 0.567899(18) 0.859962(14) 0.77526(3) 0.01077(6) 1
In2 In3+ 4 a 0.641547(17) 1.450444(12) 0.79281(3) 0.00709(6) 1
In3 In3+ 4 a 0.688296(17) 1.267751(13) 0.78961(3) 0.00720(6) 1
Si1 Si4+ 4 a 0.44724(8) 1.49383(6) 0.58527(10) 0.0091(2) 1
Si2 Si4+ 4 a 0.42797(8) 1.33596(6) 0.71668(10) 0.00802(19) 1
Si3 Si4+ 4 a 0.52014(8) 1.20379(6) 0.56095(10) 0.00906(19) 1
Si4 Si4+ 4 a 0.32601(8) 1.10683(6) 0.56530(10) 0.00849(19) 1
Si5 Si4+ 4 a 0.35988(8) 0.95759(6) 0.70289(11) 0.0090(2) 1
Si6 Si4+ 4 a 0.38515(8) 0.79271(6) 0.58867(10) 0.00924(19) 1
Si7 Si4+ 4 a 0.28548(8) 0.63097(6) 0.58236(10) 0.00750(19) 1
O1 O2- 4 a 0.5693(2) 1.50088(18) 0.6298(3) 0.0154(6) 1
O2 O2- 4 a 0.3887(3) 1.57755(17) 0.6267(3) 0.0166(6) 1
O3 O2- 4 a 0.4346(3) 1.47758(17) 0.4320(3) 0.0156(6) 1
O4 O2- 4 a 0.3839(2) 1.42369(17) 0.6678(3) 0.0129(5) 1
O5 O2- 4 a 0.53593(19) 1.34742(14) 0.8016(3) 0.0109(5) 1
O6 O2- 4 a 0.3365(2) 1.29180(15) 0.7973(3) 0.0149(5) 1
O7 O2- 4 a 0.4594(2) 1.29019(15) 0.5802(3) 0.0116(5) 1
O8 O2- 4 a 0.6315(2) 1.19852(18) 0.6365(3) 0.0134(6) 1
O9 O2- 4 a 0.5375(2) 1.19258(18) 0.4079(3) 0.0162(6) 1
O10 O2- 4 a 0.4399(2) 1.13853(16) 0.6266(3) 0.0137(6) 1
O11 O2- 4 a 0.2284(3) 1.13393(16) 0.6583(3) 0.0120(6) 1
O12 O2- 4 a 0.3121(2) 1.13645(18) 0.4173(3) 0.0159(6) 1
O13 O2- 4 a 0.3373(2) 1.00955(15) 0.5683(3) 0.0123(5) 1
O14 O2- 4 a 0.2811(2) 0.98503(16) 0.8168(2) 0.0131(6) 1
O15 O2- 4 a 0.4830(2) 0.96315(16) 0.7472(3) 0.0156(6) 1
O16 O2- 4 a 0.3270(2) 0.86662(15) 0.6660(3) 0.0135(6) 1
O17 O2- 4 a 0.3725(3) 0.80718(17) 0.4350(3) 0.0146(6) 1
O18 O2- 4 a 0.5083(2) 0.78447(17) 0.6315(3) 0.0168(6) 1
O19 O2- 4 a 0.3113(2) 0.71862(16) 0.6425(3) 0.0126(6) 1
O20 O2- 4 a 0.1800(2) 0.59468(18) 0.6443(3) 0.0152(6) 1
O21 O2- 4 a 0.2771(2) 0.63751(15) 0.4259(3) 0.0087(5) 1
loop_
_atom_site_aniso_label
_atom_site_aniso_type_symbol
_atom_site_aniso_U_11
_atom_site_aniso_U_22
_atom_site_aniso_U_33
_atom_site_aniso_U_12
_atom_site_aniso_U_13
_atom_site_aniso_U_23
K1 K1+ 0.0262(5) 0.0212(4) 0.0607(8) -0.0033(4) 0.0165(6) -0.0046(5)
K2 K1+ 0.0251(5) 0.0214(4) 0.0226(5) 0.0000(4) -0.0020(4) -0.0026(4)
K3 K1+ 0.0191(5) 0.0435(6) 0.0273(5) 0.0001(5) 0.0006(4) -0.0138(5)
K4 K1+ 0.0193(5) 0.0314(5) 0.0263(5) 0.0045(4) 0.0074(4) 0.0095(4)
K5 K1+ 0.0138(5) 0.0564(8) 0.0296(6) 0.0061(5) 0.0044(4) 0.0229(5)
In1 In3+ 0.00940(11) 0.01268(11) 0.01021(13) -0.00001(9) -0.00031(11)
0.00005(11)
In2 In3+ 0.00632(10) 0.00632(10) 0.00862(11) 0.00020(8) 0.00006(11) 0.00022(10)
In3 In3+ 0.00675(10) 0.00614(10) 0.00870(11) 0.00012(8) -0.00003(11)
-0.00071(10)
Si1 Si4+ 0.0084(5) 0.0080(4) 0.0108(5) 0.0024(4) -0.0019(4) 0.0009(4)
Si2 Si4+ 0.0051(4) 0.0084(4) 0.0105(5) -0.0013(4) -0.0009(4) 0.0003(4)
Si3 Si4+ 0.0079(5) 0.0098(4) 0.0094(5) -0.0013(4) 0.0003(4) -0.0022(4)
Si4 Si4+ 0.0080(4) 0.0097(4) 0.0077(5) -0.0014(4) 0.0007(4) 0.0001(4)
Si5 Si4+ 0.0076(5) 0.0064(4) 0.0131(5) 0.0009(4) 0.0004(4) -0.0024(4)
Si6 Si4+ 0.0095(5) 0.0069(4) 0.0113(5) -0.0006(4) -0.0007(4) -0.0016(4)
Si7 Si4+ 0.0076(4) 0.0065(4) 0.0085(4) -0.0007(4) 0.0005(4) 0.0006(3)
O1 O2- 0.0106(14) 0.0167(15) 0.0188(15) -0.0002(12) -0.0019(11) 0.0064(11)
O2 O2- 0.0195(15) 0.0139(13) 0.0163(14) 0.0072(12) -0.0061(12) -0.0014(11)
O3 O2- 0.0207(16) 0.0147(14) 0.0115(13) 0.0053(12) -0.0053(12) -0.0003(11)
O4 O2- 0.0099(13) 0.0131(13) 0.0158(13) 0.0008(11) -0.0021(11) 0.0038(10)
O5 O2- 0.0065(10) 0.0105(11) 0.0156(13) -0.0028(9) -0.0043(11) 0.0012(10)
O6 O2- 0.0105(11) 0.0187(12) 0.0156(13) -0.0055(10) -0.0007(13) 0.0010(13)
O7 O2- 0.0147(13) 0.0109(12) 0.0093(12) -0.0002(11) -0.0011(11) 0.0002(10)
O8 O2- 0.0106(14) 0.0138(14) 0.0158(13) 0.0007(12) -0.0022(12) -0.0066(11)
O9 O2- 0.0119(14) 0.0234(15) 0.0133(14) -0.0061(12) 0.0020(11) -0.0043(11)
O10 O2- 0.0124(14) 0.0145(14) 0.0143(14) -0.0053(12) -0.0016(11) 0.0026(10)
O11 O2- 0.0125(15) 0.0065(12) 0.0169(15) 0.0015(12) 0.0036(12) 0.0000(10)
O12 O2- 0.0118(13) 0.0257(16) 0.0103(13) -0.0011(12) 0.0000(11) 0.0058(11)
O13 O2- 0.0154(13) 0.0083(12) 0.0133(13) 0.0005(11) 0.0014(11) -0.0020(10)
O14 O2- 0.0129(13) 0.0132(12) 0.0131(14) 0.0048(11) 0.0003(10) -0.0013(9)
O15 O2- 0.0079(12) 0.0115(12) 0.0275(16) 0.0001(11) -0.0002(11) -0.0003(10)
O16 O2- 0.0129(13) 0.0088(12) 0.0188(15) -0.0007(11) -0.0006(11) -0.0038(10)
O17 O2- 0.0187(16) 0.0123(14) 0.0129(13) -0.0053(12) -0.0036(12) 0.0014(12)
O18 O2- 0.0116(14) 0.0178(14) 0.0210(15) 0.0011(12) -0.0043(12) -0.0061(11)
O19 O2- 0.0171(15) 0.0074(12) 0.0133(13) -0.0011(11) 0.0017(11) -0.0028(10)
O20 O2- 0.0130(14) 0.0185(14) 0.0142(13) -0.0071(12) 0.0047(12) -0.0021(11)
O21 O2- 0.0095(14) 0.0079(12) 0.0089(13) 0.0006(11) 0.0028(11) 0.0015(10)
#End of TTdata_249478-ICSD
#
