(C) 2022 by FIZ Karlsruhe - Leibniz Institute for Information Infrastructure.  All rights reserved.
data_417722-ICSD
_database_code_ICSD 417722
_audit_creation_date 2008-08-01
_audit_update_record 2011-02-01
_chemical_name_common
'Silver pentakis(monooxomolybdate(V)) tetrakis(diphosphate)'
_chemical_formula_structural 'Ag (Mo O)5 (P2 O7)4'
_chemical_formula_sum 'Ag1 Mo5 O33 P8'
_chemical_name_structure_type Li(MoO)5(P2O7)4
_exptl_crystal_density_diffrn 3.52
_diffrn_ambient_temperature 293.
_citation_title

;
A large series of isotypic Mo(V) diphosphates with a tunnel structure from A
(Mo O)10 (P2 O7)8 with A = Ba, Sr, Ca, Cd, Pb, to A (Mo O)5 (P2 O7)4 with A =
Ag, Li, Na, K
;
loop_
_citation_id
_citation_journal_full
_citation_year
_citation_journal_volume
_citation_page_first
_citation_page_last
_citation_journal_id_ASTM
primary 'Journal of Solid State Chemistry' 2007 180 2044 2052 JSSCBI
loop_
_citation_author_citation_id
_citation_author_name
primary 'Leclaire, A.'
primary 'Caignaert, V.'
primary 'Raveau, B.'
_cell_length_a 32.49770(10)
_cell_length_b 4.84900(10)
_cell_length_c 22.99570(10)
_cell_angle_alpha 90
_cell_angle_beta 134.7790(10)
_cell_angle_gamma 90
_cell_volume 2572.2
_cell_formula_units_Z 4
_space_group_name_H-M_alt 'C 1 2/c 1'
_space_group_IT_number 15
loop_
_space_group_symop_id
_space_group_symop_operation_xyz
1 'x, -y, z+1/2'
2 '-x, -y, -z'
3 '-x, y, -z+1/2'
4 'x, y, z'
5 'x+1/2, -y+1/2, z+1/2'
6 '-x+1/2, -y+1/2, -z'
7 '-x+1/2, y+1/2, -z+1/2'
8 'x+1/2, y+1/2, z'
loop_
_atom_type_symbol
_atom_type_oxidation_number
Mo5+ 5
Ag1+ 1
P5+ 5
O2- -2
loop_
_atom_site_label
_atom_site_type_symbol
_atom_site_symmetry_multiplicity
_atom_site_Wyckoff_symbol
_atom_site_fract_x
_atom_site_fract_y
_atom_site_fract_z
_atom_site_U_iso_or_equiv
_atom_site_occupancy
Mo1 Mo5+ 8 f 0.09255(2) 0.85335(9) 0.03833(3) 0.0089(3) 1
Mo2 Mo5+ 8 f 0.19574(2) 0.10535(9) 0.35307(3) 0.0092(3) 1
Mo3 Mo5+ 4 e 0 0.74038(16) 0.25 0.0102(5) 0.8312(9)
Mo4 Mo5+ 4 e 0 0.5142(8) 0.25 0.0102(5) 0.1688(9)
Ag1 Ag1+ 8 f 0.25670(16) 0.126(4) 0.2632(2) 0.085(3) 0.25
Ag2 Ag1+ 8 f 0.25732(19) 0.357(4) 0.2511(3) 0.093(3) 0.25
P1 P5+ 8 f 0.09863(6) 0.6015(3) 0.24707(8) 0.0086(8) 1
P2 P5+ 8 f 0.12605(6) 0.3553(3) 0.16439(8) 0.0099(8) 1
P3 P5+ 8 f 0.10198(6) 0.3529(3) -0.04966(8) 0.0094(8) 1
P4 P5+ 8 f 0.21179(6) 0.1084(3) 0.08821(8) 0.0101(8) 1
O1 O2- 8 f 0.02740(19) 0.7260(8) -0.0157(3) 0.023(3) 1
O2 O2- 8 f 0.09226(17) 1.1211(8) 0.1045(2) 0.017(3) 1
O3 O2- 8 f 0.13857(18) 0.5875(7) 0.1334(2) 0.017(3) 1
O4 O2- 8 f 0.11179(17) 0.6361(8) -0.0149(2) 0.017(3) 1
O5 O2- 8 f 0.07087(16) 1.1652(8) -0.0391(2) 0.016(2) 1
O6 O2- 8 f 0.18148(16) 1.0190(7) 0.1132(2) 0.013(2) 1
O7 O2- 8 f 0.2073(2) -0.0239(8) 0.4294(3) 0.023(3) 1
O8 O2- 8 f 0.26093(17) 0.3802(8) 0.4185(2) 0.017(3) 1
O9 O2- 8 f 0.12339(17) -0.1122(8) 0.2619(2) 0.017(3) 1
O10 O2- 8 f 0.13984(17) 0.4122(8) 0.3191(2) 0.016(3) 1
O11 O2- 8 f 0.24594(18) -0.1575(8) 0.3560(2) 0.021(3) 1
O12 O2- 8 f 0.18115(17) 0.2717(7) 0.2497(2) 0.012(2) 1
O13 O2- 4 e 0 1.0846(3) 0.25 0.039(6) 0.8312(9)
O14 O2- 4 e 0 0.1703(9) 0.25 0.039(6) 0.1688(9)
O15 O2- 8 f 0.03970(17) 0.6162(8) 0.2175(2) 0.017(3) 1
O16 O2- 8 f 0.07275(16) 0.6355(8) 0.3625(2) 0.015(2) 1
O17 O2- 8 f 0.08315(16) 0.4757(7) 0.1697(2) 0.012(2) 1
O18 O2- 8 f 0.16392(17) 0.2288(7) -0.0028(2) 0.013(2) 1
loop_
_atom_site_aniso_label
_atom_site_aniso_type_symbol
_atom_site_aniso_U_11
_atom_site_aniso_U_22
_atom_site_aniso_U_33
_atom_site_aniso_U_12
_atom_site_aniso_U_13
_atom_site_aniso_U_23
Mo1 Mo5+ 0.0109(2) 0.0081(2) 0.0093(2) -0.00090(17) 0.00773(19) -0.00048(18)
Mo2 Mo5+ 0.0096(2) 0.0091(2) 0.0091(2) 0.00020(18) 0.00663(19) 0.00027(18)
Mo3 Mo5+ 0.0069(3) 0.0172(4) 0.0076(3) 0 0.0055(3) 0
Mo4 Mo5+ 0.0069(3) 0.0172(4) 0.0076(3) 0 0.0055(3) 0
Ag1 Ag1+ 0.0199(14) 0.214(7) 0.0221(16) 0.006(3) 0.0152(13) -0.014(3)
Ag2 Ag1+ 0.0269(19) 0.232(8) 0.0236(17) -0.027(4) 0.0187(16) -0.034(3)
P1 P5+ 0.0077(6) 0.0107(6) 0.0096(6) -0.0009(5) 0.0069(5) -0.0015(5)
P2 P5+ 0.0120(7) 0.0100(6) 0.0095(6) 0.0017(5) 0.0082(6) 0.0021(5)
P3 P5+ 0.0092(6) 0.0110(6) 0.0072(6) 0.0008(5) 0.0055(5) 0.0004(5)
P4 P5+ 0.0081(6) 0.0113(6) 0.0101(6) 0.0006(5) 0.0062(6) 0.0018(5)
O1 O2- 0.016(2) 0.030(2) 0.026(3) -0.0079(17) 0.017(2) -0.0101(18)
O2 O2- 0.020(2) 0.020(2) 0.018(2) -0.0040(17) 0.0160(19) -0.0068(17)
O3 O2- 0.023(2) 0.018(2) 0.018(2) 0.0041(17) 0.017(2) 0.0097(16)
O4 O2- 0.023(2) 0.0131(19) 0.026(2) 0.0007(17) 0.021(2) -0.0033(17)
O5 O2- 0.0096(19) 0.023(2) 0.0107(19) 0.0015(15) 0.0061(17) 0.0044(16)
O6 O2- 0.0067(18) 0.0205(19) 0.012(2) -0.0037(14) 0.0069(17) -0.0009(15)
O7 O2- 0.029(3) 0.022(2) 0.024(2) 0.0013(18) 0.021(2) 0.0059(18)
O8 O2- 0.016(2) 0.021(2) 0.016(2) -0.0043(17) 0.0115(18) -0.0041(17)
O9 O2- 0.017(2) 0.0125(18) 0.0134(19) -0.0051(16) 0.0071(18) -0.0035(16)
O10 O2- 0.020(2) 0.019(2) 0.014(2) 0.0068(16) 0.0139(19) 0.0002(16)
O11 O2- 0.021(2) 0.023(2) 0.021(2) 0.0082(17) 0.016(2) 0.0047(18)
O12 O2- 0.0109(19) 0.0159(19) 0.0094(19) 0.0034(14) 0.0070(17) 0.0028(14)
O13 O2- 0.031(4) 0.043(5) 0.036(4) 0 0.022(4) 0
O14 O2- 0.031(4) 0.043(5) 0.036(4) 0 0.022(4) 0
O15 O2- 0.0122(19) 0.030(2) 0.0133(19) 0.0020(17) 0.0105(17) -0.0015(17)
O16 O2- 0.0116(19) 0.026(2) 0.0098(18) 0.0002(17) 0.0076(16) 0.0004(17)
O17 O2- 0.0087(19) 0.0172(19) 0.0105(19) 0.0024(14) 0.0070(17) 0.0002(14)
O18 O2- 0.013(2) 0.0170(19) 0.0104(19) 0.0035(14) 0.0083(17) 0.0052(14)
#End of TTdata_417722-ICSD
#
