(C) 2022 by FIZ Karlsruhe - Leibniz Institute for Information Infrastructure.  All rights reserved.
data_202907-ICSD
_database_code_ICSD 202907
_audit_creation_date 1990-06-08
_chemical_name_common 'Cesium vanadium(III) bismolybdate'
_chemical_formula_structural 'Cs V (Mo O4)2'
_chemical_formula_sum 'Cs1 Mo2 O8 V1'
_chemical_name_structure_type KAl(MoO4)2
_exptl_crystal_density_diffrn 3.78
_citation_title 'The Structure of Cs V (M O4)2'
loop_
_citation_id
_citation_journal_full
_citation_year
_citation_journal_volume
_citation_page_first
_citation_page_last
_citation_journal_id_ASTM
primary 'Journal of Solid State Chemistry' 1989 80 144 148 JSSCBI
loop_
_citation_author_citation_id
_citation_author_name
primary 'Lii, K.-H.'
primary 'Wang, C.-C.'
primary 'Chiang, R.K.'
primary 'Wang, S.-L.'
_cell_length_a 5.662(3)
_cell_length_b 5.662(3)
_cell_length_c 7.976(2)
_cell_angle_alpha 90.
_cell_angle_beta 90.
_cell_angle_gamma 120.
_cell_volume 221.44
_cell_formula_units_Z 1
_space_group_name_H-M_alt 'P -3 m 1'
_space_group_IT_number 164
loop_
_space_group_symop_id
_space_group_symop_operation_xyz
1 'x-y, -y, -z'
2 '-x, -x+y, -z'
3 'y, x, -z'
4 'x-y, x, -z'
5 'y, -x+y, -z'
6 '-x, -y, -z'
7 '-x+y, y, z'
8 'x, x-y, z'
9 '-y, -x, z'
10 '-x+y, -x, z'
11 '-y, x-y, z'
12 'x, y, z'
loop_
_atom_type_symbol
_atom_type_oxidation_number
Cs1+ 1
V3+ 3
Mo6+ 6
O2- -2
loop_
_atom_site_label
_atom_site_type_symbol
_atom_site_symmetry_multiplicity
_atom_site_Wyckoff_symbol
_atom_site_fract_x
_atom_site_fract_y
_atom_site_fract_z
_atom_site_B_iso_or_equiv
_atom_site_occupancy
Cs1 Cs1+ 1 a 0 0 0 . 1.
V1 V3+ 1 b 0 0 0.5 . 1.
Mo1 Mo6+ 2 d 0.6667 0.3333 0.28729(7) . 1.
O1 O2- 6 i 0.1627(4) -.1627(4) 0.6445(4) . 1.
O2 O2- 2 d 0.6667 0.3333 0.0735(8) . 1.
loop_
_atom_site_aniso_label
_atom_site_aniso_type_symbol
_atom_site_aniso_U_11
_atom_site_aniso_U_22
_atom_site_aniso_U_33
_atom_site_aniso_U_12
_atom_site_aniso_U_13
_atom_site_aniso_U_23
Cs1 Cs1+ 0.0203(4) 0.0203(4) 0.0162(4) 0.0102(2) 0 0
V1 V3+ 0.0042(5) 0.0042(5) 0.0130(7) 0.0021(2) 0 0
Mo1 Mo6+ 0.0066(3) 0.0066(3) 0.0121(4) 0.0033(2) 0 0
O1 O2- 0.030(1) 0.030(1) 0.027(2) 0.023(2) -.0044(6) 0.0044(6)
O2 O2- 0.024(2) 0.024(2) 0.017(2) 0.012(1) 0 0
#End of TTdata_202907-ICSD
#
