(C) 2022 by FIZ Karlsruhe - Leibniz Institute for Information Infrastructure.  All rights reserved.
data_45181-ICSD
_database_code_ICSD 45181
_audit_creation_date 2022-08-01
_chemical_name_common 'Lithium tetralanthanum dinitride heptaiodide'
_chemical_formula_structural 'Li La4 N2 I7'
_chemical_formula_sum 'I7 La4 Li1 N2'
_chemical_name_structure_type LiLa4N2I7
_exptl_crystal_density_diffrn 5.39
_diffrn_ambient_temperature 280.
_citation_title

;
LiLa$_4$N$_2$I$_7$ as the first lithium-containing nitride halide of the
lanthanides. Synthesis, crystal structure and spectroscopic characterization
;
loop_
_citation_id
_citation_journal_full
_citation_year
_citation_journal_volume
_citation_page_first
_citation_page_last
_citation_journal_id_ASTM
primary 'Solid State Sciences' 2020 99 '' '' SSSCFJ
loop_
_citation_author_citation_id
_citation_author_name
primary 'Schurz, Christian M.'
primary 'Niewa, Rainer'
primary 'Schleid, Thomas'
_cell_length_a 13.8030(3)
_cell_length_b 12.1652(3)
_cell_length_c 10.8509(4)
_cell_angle_alpha 90.
_cell_angle_beta 90.
_cell_angle_gamma 90.
_cell_volume 1822.04
_cell_formula_units_Z 4
_space_group_name_H-M_alt 'P n m a'
_space_group_IT_number 62
loop_
_space_group_symop_id
_space_group_symop_operation_xyz
1 'x+1/2, y, -z+1/2'
2 'x, -y+1/2, z'
3 '-x+1/2, y+1/2, z+1/2'
4 '-x, -y, -z'
5 '-x+1/2, -y, z+1/2'
6 '-x, y+1/2, -z'
7 'x+1/2, -y+1/2, -z+1/2'
8 'x, y, z'
loop_
_atom_type_symbol
_atom_type_oxidation_number
Li1+ 1
La3+ 3
N3- -3
I1- -1
loop_
_atom_site_label
_atom_site_type_symbol
_atom_site_symmetry_multiplicity
_atom_site_Wyckoff_symbol
_atom_site_fract_x
_atom_site_fract_y
_atom_site_fract_z
_atom_site_U_iso_or_equiv
_atom_site_occupancy
Li1 Li1+ 4 c 0.434(5) 0.25 0.958(10) 0.10(3) 1
La1 La3+ 4 c 0.08907(8) 0.25 0.87203(11) 0.0156(2) 1
La2 La3+ 4 c 0.39378(8) 0.25 0.40681(11) 0.0164(2) 1
La3 La3+ 8 d 0.09114(6) 0.01187(7) 0.11973(8) 0.01616(17) 1
N1 N3- 8 d 0.4973(9) 0.1243(10) 0.5080(13) 0.018(2) 1
I1 I1- 4 c 0.04125(12) 0.25 0.31474(13) 0.0254(3) 1
I2 I1- 4 c 0.25405(11) 0.25 0.09134(14) 0.0249(3) 1
I3 I1- 4 c 0.29789(11) 0.25 0.68849(14) 0.0238(3) 1
I4 I1- 8 d 0.03237(8) 0.07999(9) 0.64903(9) 0.0263(2) 1
I5 I1- 8 d 0.25836(8) 0.02265(9) 0.38743(11) 0.0279(2) 1
loop_
_atom_site_aniso_label
_atom_site_aniso_type_symbol
_atom_site_aniso_U_11
_atom_site_aniso_U_22
_atom_site_aniso_U_33
_atom_site_aniso_U_12
_atom_site_aniso_U_13
_atom_site_aniso_U_23
Li1 Li1+ 0.03(3) 0.12(7) 0.15(8) 0. 0.07(4) 0.
La1 La3+ 0.0158(5) 0.0149(5) 0.0159(5) 0. 0.0013(4) 0.
La2 La3+ 0.0143(5) 0.0140(5) 0.0208(5) 0. -0.0023(4) 0.
La3 La3+ 0.0170(4) 0.0143(3) 0.0171(3) 0.0000(3) -0.0023(3) 0.0004(3)
N1 N3- 0.014(5) 0.009(5) 0.029(6) -0.001(4) -0.001(5) 0.001(5)
I1 I1- 0.0262(7) 0.0308(8) 0.0192(6) 0. -0.0002(5) 0.
I2 I1- 0.0212(6) 0.0291(7) 0.0243(7) 0. -0.0008(5) 0.
I3 I1- 0.0208(6) 0.0238(7) 0.0268(7) 0. 0.0069(5) 0.
I4 I1- 0.0306(5) 0.0288(5) 0.0195(4) -0.0069(4) 0.0029(4) -0.0045(4)
I5 I1- 0.0248(5) 0.0244(5) 0.0346(6) -0.0050(4) -0.0090(4) 0.0015(4)
#End of TTdata_45181-ICSD
#
