(C) 2022 by FIZ Karlsruhe - Leibniz Institute for Information Infrastructure.  All rights reserved.
data_165407-ICSD
_database_code_ICSD 165407
_audit_creation_date 2010-02-01
_audit_update_record 2010-08-01
_chemical_name_common 'Dicalcium vanadium(III) phosphate(V) diphosphate(V)'
_chemical_formula_structural 'Ca2 V (P O4) (P2 O7)'
_chemical_formula_sum 'Ca2 O11 P3 V1'
_chemical_name_structure_type Ca2V(PO4)(P2O7)
_exptl_crystal_density_diffrn 3.33
_diffrn_ambient_temperature 297.
_citation_title

;
Hydrothermal synthesis and structural characterization of two calcium
vanadium(III) phosphates: Ca2 V (P O4) (H P O4)2 * (H2 O) and Ca2 V (P O4) (P2
O7)
;
loop_
_citation_id
_citation_journal_full
_citation_year
_citation_journal_volume
_citation_page_first
_citation_page_last
_citation_journal_id_ASTM
primary 'Inorganic Chemistry' 1992 31 439 442 INOCAJ
loop_
_citation_author_citation_id
_citation_author_name
primary 'Lii, K.-H.'
primary 'Wen, N.S.'
primary 'Su, C.-C.'
primary 'Chueh, B.R.'
_cell_length_a 6.391(2)
_cell_length_b 6.6362(9)
_cell_length_c 19.071(2)
_cell_angle_alpha 90.
_cell_angle_beta 99.26(2)
_cell_angle_gamma 90.
_cell_volume 798.3
_cell_formula_units_Z 4
_space_group_name_H-M_alt 'P 1 21/c 1'
_space_group_IT_number 14
loop_
_space_group_symop_id
_space_group_symop_operation_xyz
1 'x, -y+1/2, z+1/2'
2 '-x, -y, -z'
3 '-x, y+1/2, -z+1/2'
4 'x, y, z'
loop_
_atom_type_symbol
_atom_type_oxidation_number
Ca2+ 2
V3+ 3
P5+ 5
O2- -2
loop_
_atom_site_label
_atom_site_type_symbol
_atom_site_symmetry_multiplicity
_atom_site_Wyckoff_symbol
_atom_site_fract_x
_atom_site_fract_y
_atom_site_fract_z
_atom_site_B_iso_or_equiv
_atom_site_occupancy
Ca1 Ca2+ 4 e 0.67011(18) 0.64524(19) 0.07768(6) 0.95(4) 1.
Ca2 Ca2+ 4 e 0.67074(18) -0.01060(16) 0.27244(7) 0.81(4) 1.
V1 V3+ 4 e 0.94683(13) 0.14427(13) 0.12229(5) 0.33(3) 1.
P1 P5+ 4 e 0.42809(21) 0.15421(20) 0.08817(7) 0.41(5) 1.
P2 P5+ 4 e 0.17104(22) -0.20579(20) 0.04854(7) 0.49(5) 1.
P3 P5+ 4 e 0.18400(21) -0.01081(19) 0.27365(7) 0.38(5) 1.
O1 O2- 4 e 0.9807(6) -0.1271(5) 0.08165(19) 0.61(13) 1.
O2 O2- 4 e 0.2728(5) 0.2026(5) 0.13890(19) 0.60(4) 1.
O3 O2- 4 e 0.3098(6) -0.3427(5) 0.09743(19) 0.94(14) 1.
O4 O2- 4 e 0.6340(5) 0.0590(5) 0.12566(19) 0.69(14) 1.
O5 O2- 4 e 0.4696(6) 0.3267(5) 0.04101(19) 0.74(14) 1.
O6 O2- 4 e 0.9070(6) 0.2820(5) 0.02645(19) 0.71(14) 1.
O7 O2- 4 e 0.3121(6) -0.0121(6) 0.03447(19) 0.71(14) 1.
O8 O2- 4 e 0.9856(6) 0.0354(5) 0.21851(19) 0.73(14) 1.
O9 O2- 4 e 0.3267(6) -0.1680(6) 0.24845(20) 0.87(14) 1.
O10 O2- 4 e 0.9081(6) 0.4193(5) 0.15898(19) 0.58(13) 1.
O11 O2- 4 e 0.3143(5) 0.1757(5) 0.29667(19) 0.76(14) 1.
#End of TTdata_165407-ICSD
#
