(C) 2022 by FIZ Karlsruhe - Leibniz Institute for Information Infrastructure.  All rights reserved.
data_759794-ICSD
_database_code_ICSD 759794
_audit_creation_date 2020-02-01
_chemical_name_common 'Lithium iodide trihydrate'
_chemical_formula_structural 'Li I (H2 O)3'
_chemical_formula_sum 'H6 I1 Li1 O3'
_chemical_name_structure_type LiI(H2O)3
_exptl_crystal_density_diffrn 2.37
_diffrn_ambient_temperature 250.
_citation_title
'Higher hydrates of lithium chloride, lithium bromide and lithium iodide'
loop_
_citation_id
_citation_journal_full
_citation_year
_citation_journal_volume
_citation_page_first
_citation_page_last
_citation_journal_id_ASTM
primary 'Acta Crystallographica, Section C: Structural Chemistry' 2018 74 194
202 ACSCGG
loop_
_citation_author_citation_id
_citation_author_name
primary 'Sohr, Julia'
primary 'Schmidt, Horst'
primary 'Voigt, Wolfgang'
_cell_length_a 7.4610(18)
_cell_length_b 7.4610(18)
_cell_length_c 5.459(3)
_cell_angle_alpha 90
_cell_angle_beta 90
_cell_angle_gamma 120
_cell_volume 263.17
_cell_formula_units_Z 2
_space_group_name_H-M_alt 'P 63/m m c'
_space_group_IT_number 194
loop_
_space_group_symop_id
_space_group_symop_operation_xyz
1 'x, x-y, -z+1/2'
2 '-x+y, y, -z+1/2'
3 '-y, -x, -z+1/2'
4 '-x+y, -x, -z+1/2'
5 '-y, x-y, -z+1/2'
6 'x, y, -z+1/2'
7 '-x, -x+y, z+1/2'
8 'x-y, -y, z+1/2'
9 'y, x, z+1/2'
10 'x-y, x, z+1/2'
11 'y, -x+y, z+1/2'
12 '-x, -y, z+1/2'
13 '-x, -x+y, -z'
14 'x-y, -y, -z'
15 'y, x, -z'
16 'x-y, x, -z'
17 'y, -x+y, -z'
18 '-x, -y, -z'
19 'x, x-y, z'
20 '-x+y, y, z'
21 '-y, -x, z'
22 '-x+y, -x, z'
23 '-y, x-y, z'
24 'x, y, z'
loop_
_atom_type_symbol
_atom_type_oxidation_number
I1- -1
Li1+ 1
O2- -2
H1+ 1
loop_
_atom_site_label
_atom_site_type_symbol
_atom_site_symmetry_multiplicity
_atom_site_Wyckoff_symbol
_atom_site_fract_x
_atom_site_fract_y
_atom_site_fract_z
_atom_site_U_iso_or_equiv
_atom_site_occupancy
I1 I1- 2 d 0.666667 0.333333 0.25 0.0423(2) 1
Li1 Li1+ 2 a 0. 0. 0. 0.037(2) 1
O1 O2- 6 h 0.1238(3) 0.2477(5) 0.25 0.0476(8) 1
H1 H1+ 12 j 0.088(9) 0.332(7) 0.25 0.09(2) 1
loop_
_atom_site_aniso_label
_atom_site_aniso_type_symbol
_atom_site_aniso_U_11
_atom_site_aniso_U_22
_atom_site_aniso_U_33
_atom_site_aniso_U_12
_atom_site_aniso_U_13
_atom_site_aniso_U_23
I1 I1- 0.0357(2) 0.0357(2) 0.0555(3) 0.01787(11) 0. 0.
Li1 Li1+ 0.041(3) 0.041(3) 0.027(5) 0.0205(17) 0. 0.
O1 O2- 0.0649(18) 0.0284(15) 0.0374(14) 0.0142(8) 0. 0.
#End of TTdata_759794-ICSD
#
