(C) 2022 by FIZ Karlsruhe - Leibniz Institute for Information Infrastructure.  All rights reserved.
data_170134-ICSD
_database_code_ICSD 170134
_audit_creation_date 2006-04-01
_chemical_name_common 'Trirubidium indium silicate'
_chemical_formula_structural 'Rb3 In (H2 O) Si5 O13'
_chemical_formula_sum 'H2 In1 O14 Rb3 Si5'
_exptl_crystal_density_diffrn 3.44
_citation_title

;
Rb3 In (H2 O) Si5 O13: a novel indium silicate with a Cd S O4-topological-type
structure
;
loop_
_citation_id
_citation_journal_full
_citation_year
_citation_journal_volume
_citation_page_first
_citation_page_last
_citation_journal_id_ASTM
primary 'Inorganic Chemistry' 2005 44 2992 2994 INOCAJ
loop_
_citation_author_citation_id
_citation_author_name
primary 'Hung, L.-I.'
primary 'Wang, S.-L.'
primary 'Chen, C.-Y.'
primary 'Chang, B.-H.'
primary 'Lii, K.-H.'
_cell_length_a 9.0697(5)
_cell_length_b 11.5456(6)
_cell_length_c 13.9266(8)
_cell_angle_alpha 90.
_cell_angle_beta 102.3000(10)
_cell_angle_gamma 90.
_cell_volume 1424.85
_cell_formula_units_Z 4
_space_group_name_H-M_alt 'C 1 c 1'
_space_group_IT_number 9
loop_
_space_group_symop_id
_space_group_symop_operation_xyz
1 'x, -y, z+1/2'
2 'x, y, z'
3 'x+1/2, -y+1/2, z+1/2'
4 'x+1/2, y+1/2, z'
loop_
_atom_type_symbol
_atom_type_oxidation_number
Rb1+ 1
In3+ 3
Si4+ 4
O2- -2
H1+ 1
loop_
_atom_site_label
_atom_site_type_symbol
_atom_site_symmetry_multiplicity
_atom_site_Wyckoff_symbol
_atom_site_fract_x
_atom_site_fract_y
_atom_site_fract_z
_atom_site_U_iso_or_equiv
_atom_site_occupancy
Rb1 Rb1+ 4 a 0.92365(6) -0.22627(4) 0.05771(4) 0.02439(12) 1
Rb2 Rb1+ 4 a 0.95896(6) -0.22257(4) 0.53158(4) 0.02380(12) 1
Rb3 Rb1+ 4 a 0.89786(6) 0.00220(4) 0.29430(4) 0.02414(12) 1
In1 In3+ 4 a 0.64939(4) 0.25154(2) 0.32074(3) 0.00969(8) 1
Si1 Si4+ 4 a 1.26463(13) 0.17414(9) 0.27674(8) 0.0093(2) 1
Si2 Si4+ 4 a 0.50425(13) -0.17531(9) 0.29957(9) 0.0108(2) 1
Si3 Si4+ 4 a 0.61613(14) -0.00296(9) 0.46604(9) 0.0106(2) 1
Si4 Si4+ 4 a 1.24883(13) -0.04806(9) 0.16567(8) 0.0097(2) 1
Si5 Si4+ 4 a 1.26707(13) 0.00153(9) 0.45685(9) 0.0097(2) 1
O1 O2- 4 a 1.2579(4) 0.0927(2) 0.1796(2) 0.0141(6) 1
O2 O2- 4 a 1.1098(4) 0.2481(2) 0.2434(3) 0.0147(6) 1
O3 O2- 4 a 1.4090(4) 0.2549(2) 0.3021(3) 0.0147(8) 1
O4 O2- 4 a 1.2402(4) 0.0943(3) 0.3677(2) 0.0191(7) 1
O5 O2- 4 a 0.3916(5) -0.2515(2) 0.3457(3) 0.0165(8) 1
O6 O2- 4 a 0.6223(4) -0.0979(3) 0.3795(3) 0.0199(7) 1
O7 O2- 4 a 0.4200(4) -0.0911(3) 0.2118(3) 0.0217(7) 1
O8 O2- 4 a 0.7374(4) -0.0453(3) 0.5637(3) 0.0211(7) 1
O9 O2- 4 a 0.6563(4) 0.1232(3) 0.4355(3) 0.0170(7) 1
O10 O2- 4 a 0.4485(4) -0.0170(3) 0.4917(3) 0.0174(6) 1
O11 O2- 4 a 1.1263(4) -0.1109(3) 0.2125(2) 0.0132(6) 1
O12 O2- 4 a 1.2152(4) -0.0705(3) 0.0470(2) 0.0150(6) 1
O13 O2- 4 a 1.1718(4) -0.1147(3) 0.4317(2) 0.0140(7) 1
O14 O2- 4 a 0.6318(4) 0.1264(3) 0.2062(3) 0.0179(7) 1
H1 H1+ 4 a 0.6184 0.1209 0.1433 0.05 1
H2 H1+ 4 a 0.5832 0.0729 0.2174 0.05 1
loop_
_atom_site_aniso_label
_atom_site_aniso_type_symbol
_atom_site_aniso_U_11
_atom_site_aniso_U_22
_atom_site_aniso_U_33
_atom_site_aniso_U_12
_atom_site_aniso_U_13
_atom_site_aniso_U_23
Rb1 Rb1+ 0.0249(3) 0.0243(2) 0.0203(3) -0.00198(19) -0.00366(18) -0.00178(19)
Rb2 Rb1+ 0.0266(3) 0.0250(2) 0.0223(2) 0.0006(2) 0.0107(2) -0.00036(18)
Rb3 Rb1+ 0.0207(2) 0.0167(2) 0.0348(3) 0.00499(14) 0.0056(2) 0.00114(19)
In1 In3+ 0.00966(14) 0.00969(11) 0.01014(14) -0.00036(9) 0.00307(9) 0.00011(9)
Si1 Si4+ 0.0098(5) 0.0084(5) 0.0107(5) 0.0006(4) 0.0041(4) 0.0003(4)
Si2 Si4+ 0.0097(5) 0.0105(4) 0.0128(5) 0.0016(4) 0.0039(4) 0.0003(4)
Si3 Si4+ 0.0112(6) 0.0097(5) 0.0113(5) -0.0007(4) 0.0033(4) -0.0002(4)
Si4 Si4+ 0.0114(5) 0.0090(5) 0.0097(5) 0.0009(4) 0.0043(4) 0.0007(4)
Si5 Si4+ 0.0108(6) 0.0095(5) 0.0095(5) -0.0004(4) 0.0036(4) -0.0003(3)
O1 O2- 0.0181(15) 0.0116(13) 0.0136(15) -0.0008(12) 0.0054(12) -0.0010(11)
O2 O2- 0.0135(17) 0.0171(14) 0.0134(16) 0.0053(11) 0.0025(13) -0.0019(11)
O3 O2- 0.0105(19) 0.0137(18) 0.021(2) -0.0024(10) 0.0058(15) -0.0025(12)
O4 O2- 0.0237(18) 0.0202(15) 0.0146(16) -0.0022(13) 0.0065(13) 0.0040(12)
O5 O2- 0.0124(19) 0.0157(19) 0.0214(19) 0.0006(11) 0.0037(14) 0.0029(11)
O6 O2- 0.0189(17) 0.0202(15) 0.0224(16) -0.0046(13) 0.0087(14) -0.0096(13)
O7 O2- 0.0124(16) 0.0265(16) 0.0266(18) 0.0055(13) 0.0050(13) 0.0124(14)
O8 O2- 0.0159(17) 0.0303(18) 0.0171(16) 0.0038(14) 0.0037(13) 0.0060(14)
O9 O2- 0.0210(18) 0.0134(15) 0.0167(16) -0.0033(13) 0.0041(14) 0.0059(13)
O10 O2- 0.0100(15) 0.0240(15) 0.0192(16) 0.0009(12) 0.0054(12) 0.0002(12)
O11 O2- 0.0109(15) 0.0139(14) 0.0155(15) 0.0003(12) 0.0041(12) 0.0012(12)
O12 O2- 0.0230(16) 0.0132(14) 0.0100(15) -0.0027(12) 0.0066(12) -0.0009(10)
O13 O2- 0.0181(18) 0.0120(15) 0.0132(15) -0.0020(13) 0.0064(13) -0.0021(12)
O14 O2- 0.0206(18) 0.0173(16) 0.0166(16) -0.0024(14) 0.0055(14) -0.0029(13)
#End of TTdata_170134-ICSD
#
