(C) 2022 by FIZ Karlsruhe - Leibniz Institute for Information Infrastructure.  All rights reserved.
data_73344-ICSD
_database_code_ICSD 73344
_audit_creation_date 1994-06-30
_audit_update_record 2010-02-01
_chemical_name_common 'Sodium oxovanadium phosphate(V) hydrate (0.5/1/1/2)'
_chemical_formula_structural 'Na0.5 (V O) (P O4) (H2 O)2'
_chemical_formula_sum 'H4 Na0.5 O7 P1 V1'
_chemical_name_structure_type NaxVOPO4(H2O)2
_exptl_crystal_density_diffrn 2.7
_diffrn_ambient_temperature 297.
_citation_title

;
Hydrothermal synthesis and structural characterization of two layered
mixed-valence vanadyl phosphate hydrates Na0.50 V O P O4 * 2(H2 O) and K0.50 V
O P O4 * 1.5(H2 O)
;
loop_
_citation_id
_citation_journal_full
_citation_year
_citation_journal_volume
_citation_page_first
_citation_page_last
_citation_journal_id_ASTM
primary 'Inorganic Chemistry' 1991 30 3496 3499 INOCAJ
loop_
_citation_author_citation_id
_citation_author_name
primary 'Wang, S.-L.'
primary 'Kang, H.-Y.'
primary 'Cheng, C.-Y.'
primary 'Lii, K.-H.'
_cell_length_a 6.2851(7)
_cell_length_b 6.284(1)
_cell_length_c 13.262(2)
_cell_angle_alpha 80.30(1)
_cell_angle_beta 87.434(9)
_cell_angle_gamma 89.94(1)
_cell_volume 515.77
_cell_formula_units_Z 4
_space_group_name_H-M_alt 'P -1'
_space_group_IT_number 2
loop_
_space_group_symop_id
_space_group_symop_operation_xyz
1 '-x, -y, -z'
2 'x, y, z'
loop_
_atom_type_symbol
_atom_type_oxidation_number
Na1+ 1
V5+ 4.5
P5+ 5
O2- -2
H1+ 1
O2- -2
H1+ 1
O2- -2
H1+ 1
O2- -2
H1+ 1
loop_
_atom_site_label
_atom_site_type_symbol
_atom_site_symmetry_multiplicity
_atom_site_Wyckoff_symbol
_atom_site_fract_x
_atom_site_fract_y
_atom_site_fract_z
_atom_site_U_iso_or_equiv
_atom_site_occupancy
Na1 Na1+ 2 i 0.5858(2) 0.9874(2) 0.2518(1) 0.0376(5) 1.
V1 V5+ 2 i 0.75876(5) 0.26412(6) 0.45331(3) 0.0071(1) 1.
V2 V5+ 2 i 0.24548(5) 0.23951(6) 0.04728(3) 0.0071(1) 1.
P1 P5+ 2 i 0.25181(8) 0.25122(8) 0.49825(5) 0.0072(2) 1.
P2 P5+ 2 i 0.24922(8) 0.75209(9) 0.99805(5) 0.0072(2) 1.
O1 O2- 2 i 0.7492(3) 0.2191(3) 0.5746(2) 0.0172(6) 1.
O2 O2- 2 i 0.7771(3) 0.5805(3) 0.4310(1) 0.0130(5) 1.
O3 O2- 2 i 0.7377(3) 0.9669(3) 0.4297(1) 0.0116(5) 1.
O4 O2- 2 i 0.0677(3) 0.2584(3) 0.4248(1) 0.0126(5) 1.
O5 O2- 2 i 0.4540(3) 0.2942(3) 0.4286(1) 0.0151(5) 1.
O6 O2- 2 i 0.5496(3) 0.2114(3) 0.0733(1) 0.0125(5) 1.
O7 O2- 2 i -.0635(3) 0.2458(3) 0.0733(1) 0.0130(5) 1.
O8 O2- 2 i 0.2553(3) 0.2926(3) -.0736(2) 0.0172(5) 1.
O9 O2- 2 i 0.2574(3) 0.5378(3) 0.0742(1) 0.0122(5) 1.
O10 O2- 2 i 0.2247(3) 0.9263(3) 0.0658(2) 0.0158(5) 1.
O11 O2- 2 i 0.7556(3) 0.3275(3) 0.2747(1) 0.0180(5) 1.
H1 H1+ 2 i 0.6595 0.432 0.2666 0.08(5) 1.
H2 H1+ 2 i 0.827 0.3236 0.2239 0.08(5) 1.
O12 O2- 2 i 0.2310(3) 0.1446(3) 0.2279(2) 0.0180(5) 1.
H3 H1+ 2 i 0.1695 0.2303 0.2603 0.08(5) 1.
H4 H1+ 2 i 0.1493 0.0338 0.2484 0.08(5) 1.
O13 O2- 2 i 0.9383(3) 0.8288(3) 0.2467(2) 0.0269(6) 1.
H5 H1+ 2 i 0.9268 0.715 0.2962 0.08(6) 1.
H6 H1+ 2 i 0.9828 0.768 0.2022 0.08(6) 1.
O14 O2- 2 i 0.4488(3) 0.6360(3) 0.2493(2) 0.0223(6) 1.
H7 H1+ 2 i 0.3992 0.571 0.2955 0.08(6) 1.
H8 H1+ 2 i 0.3897 0.605 0.2008 0.08(6) 1.
#End of TTdata_73344-ICSD
#
