(C) 2022 by FIZ Karlsruhe - Leibniz Institute for Information Infrastructure.  All rights reserved.
data_72886-ICSD
_database_code_ICSD 72886
_audit_creation_date 1994-01-19
_chemical_name_common 'Calcium bis(oxovanadium) bis(phosphate)'
_chemical_formula_structural 'Ca (V O)2 (P O4)2'
_chemical_formula_sum 'Ca1 O10 P2 V2'
_chemical_name_structure_type CdV2O2O10
_exptl_crystal_density_diffrn 3.61
_citation_title 'Synthesis and crystal structure of Ca(VO)2(PO4)2'
loop_
_citation_id
_citation_journal_full
_citation_year
_citation_journal_volume
_citation_page_first
_citation_page_last
_citation_journal_id_ASTM
primary 'Journal of Solid State Chemistry' 1992 99 72 77 JSSCBI
loop_
_citation_author_citation_id
_citation_author_name
primary 'Lii, K.-H.'
primary 'Chueh, B.R.'
primary 'Kang, H.-Y.'
primary 'Wang, S.-L.'
_cell_length_a 11.795(4)
_cell_length_b 15.784(6)
_cell_length_c 7.190(4)
_cell_angle_alpha 90.
_cell_angle_beta 90.
_cell_angle_gamma 90.
_cell_volume 1338.58
_cell_formula_units_Z 8
_space_group_name_H-M_alt 'F d d 2'
_space_group_IT_number 43
loop_
_space_group_symop_id
_space_group_symop_operation_xyz
1 'x+1/4, -y+1/4, z+1/4'
2 '-x+1/4, y+1/4, z+1/4'
3 '-x, -y, z'
4 'x, y, z'
5 'x+1/4, -y+3/4, z+3/4'
6 '-x+1/4, y+3/4, z+3/4'
7 '-x, -y+1/2, z+1/2'
8 'x, y+1/2, z+1/2'
9 'x+3/4, -y+1/4, z+3/4'
10 '-x+3/4, y+1/4, z+3/4'
11 '-x+1/2, -y, z+1/2'
12 'x+1/2, y, z+1/2'
13 'x+3/4, -y+3/4, z+1/4'
14 '-x+3/4, y+3/4, z+1/4'
15 '-x+1/2, -y+1/2, z'
16 'x+1/2, y+1/2, z'
loop_
_atom_type_symbol
_atom_type_oxidation_number
Ca2+ 2
V4+ 4
P5+ 5
O2- -2
loop_
_atom_site_label
_atom_site_type_symbol
_atom_site_symmetry_multiplicity
_atom_site_Wyckoff_symbol
_atom_site_fract_x
_atom_site_fract_y
_atom_site_fract_z
_atom_site_U_iso_or_equiv
_atom_site_occupancy
Ca1 Ca2+ 8 a 0.25 0.25 0.5 0.0083(8) 1.
V1 V4+ 16 b 0.1102(1) 0.1182(1) 0.8540(6) 0.0044(4) 1.
P1 P5+ 16 b -.0007(2) 0.2923(1) 0.7469(9) 0.0053(6) 1.
O1 O2- 16 b 0.1033(6) 0.2332(4) 0.729(1) 0.006(1) 1.
O2 O2- 16 b 0.2361(6) 0.0998(4) 0.668(1) 0.005(2) 1.
O3 O2- 16 b 0.2529(6) 0.1688(3) 0.995(1) 0.004(1) 1.
O4 O2- 16 b 0.0124(5) 0.1483(4) 0.080(1) 0.008(2) 1.
O5 O2- 16 b 0.1427(6) 0.0134(4) 0.015(1) 0.005(1) 1.
#End of TTdata_72886-ICSD
#
