(C) 2022 by FIZ Karlsruhe - Leibniz Institute for Information Infrastructure.  All rights reserved.
data_73580-ICSD
_database_code_ICSD 73580
_audit_creation_date 1994-06-30
_chemical_name_common 'Disilver dioxovanadium phosphate'
_chemical_formula_structural 'Ag2 (V O2) (P O4)'
_chemical_formula_sum 'Ag2 O6 P1 V1'
_exptl_crystal_density_diffrn 5.3
_diffrn_ambient_temperature 297.
_citation_title

;
Hydrothermal synthesis. Crystal structure and ionic conductivity ofAg2VO2PO4 :
a new layered phosphate of vanadium(V)
;
loop_
_citation_id
_citation_journal_full
_citation_year
_citation_journal_volume
_citation_page_first
_citation_page_last
_citation_journal_id_ASTM
primary
'Journal of the Chemical Society, Dalton Transactions: Inorganic Chemistry ' 1993 1993 1525 1528 JCDTBI
loop_
_citation_author_citation_id
_citation_author_name
primary 'Kang, H.-Y.'
primary 'Wang, S.-L.'
primary 'Tsai, P.-P.'
primary 'Lii, K.-H.'
_cell_length_a 12.431(3)
_cell_length_b 6.298(1)
_cell_length_c 6.300(2)
_cell_angle_alpha 90.
_cell_angle_beta 90.38(2)
_cell_angle_gamma 90.
_cell_volume 493.22
_cell_formula_units_Z 4
_space_group_name_H-M_alt 'C 1 2/m 1'
_space_group_IT_number 12
loop_
_space_group_symop_id
_space_group_symop_operation_xyz
1 '-x, y, -z'
2 '-x, -y, -z'
3 'x, -y, z'
4 'x, y, z'
5 '-x+1/2, y+1/2, -z'
6 '-x+1/2, -y+1/2, -z'
7 'x+1/2, -y+1/2, z'
8 'x+1/2, y+1/2, z'
loop_
_atom_type_symbol
_atom_type_oxidation_number
Ag1+ 1
V5+ 5
P5+ 5
O2- -2
loop_
_atom_site_label
_atom_site_type_symbol
_atom_site_symmetry_multiplicity
_atom_site_Wyckoff_symbol
_atom_site_fract_x
_atom_site_fract_y
_atom_site_fract_z
_atom_site_B_iso_or_equiv
_atom_site_occupancy
Ag1 Ag1+ 8 j 0.88065(4) 0.75947(6) 0.38036(6) . 1.
V1 V5+ 4 i 0.61707(7) 0 0.0876(2) . 1.
P1 P5+ 4 i 0.8476(1) 0 0.8517(2) . 1.
O1 O2- 4 i 0.4958(3) 0 0.2069(6) . 1.
O2 O2- 8 j 0.8816(2) 0.8032(5) 0.9811(5) . 1.
O3 O2- 4 i 0.7238(3) 0 0.8228(6) . 1.
O4 O2- 4 i 0.5964(3) 0.5 0.3645(6) . 1.
O5 O2- 4 i 0.7014(3) 0 0.2847(6) . 1.
loop_
_atom_site_aniso_label
_atom_site_aniso_type_symbol
_atom_site_aniso_U_11
_atom_site_aniso_U_22
_atom_site_aniso_U_33
_atom_site_aniso_U_12
_atom_site_aniso_U_13
_atom_site_aniso_U_23
Ag1 Ag1+ 0.0555(4) 0.0289(3) 0.0210(3) 0.0096(2) -.0081(2) -.0145(2)
V1 V5+ 0.0081(5) 0.0089(5) 0.0086(5) 0 -.0006(3) 0
P1 P5+ 0.0076(6) 0.0084(6) 0.0075(6) 0 0.0003(4) 0
O1 O2- 0.013(2) 0.014(2) 0.015(2) 0 0.002(2) 0
O2 O2- 0.015(1) 0.008(1) 0.010(1) 0.001(1) 0.000(1) 0.001(1)
O3 O2- 0.009(1) 0.013(2) 0.013(2) 0 -.003(1) 0
O4 O2- 0.016(2) 0.018(2) 0.008(2) 0 0.003(1) 0
O5 O2- 0.016(2) 0.018(2) 0.014(2) 0 -.003(2) 0
#End of TTdata_73580-ICSD
#
