(C) 2022 by FIZ Karlsruhe - Leibniz Institute for Information Infrastructure.  All rights reserved.
data_73866-ICSD
_database_code_ICSD 73866
_audit_creation_date 1995-01-10
_chemical_name_common 'Cesium iron(III) diphosphate'
_chemical_formula_structural 'Cs Fe (P2 O7)'
_chemical_formula_sum 'Cs1 Fe1 O7 P2'
_chemical_name_structure_type KAlP2O7
_exptl_crystal_density_diffrn 3.9
_citation_title

;
Synthesis, crystal structure, and magnetic susceptibilities of CsFeP2O7 and
RbFeP2O7
;
loop_
_citation_id
_citation_journal_full
_citation_year
_citation_journal_volume
_citation_page_first
_citation_page_last
_citation_journal_id_ASTM
primary 'Journal of Solid State Chemistry' 1993 105 279 286 JSSCBI
loop_
_citation_author_citation_id
_citation_author_name
primary 'Dvoncova, E.'
primary 'Lii, K.-H.'
_cell_length_a 7.684(3)
_cell_length_b 9.937(3)
_cell_length_c 8.378(3)
_cell_angle_alpha 90.
_cell_angle_beta 104.84(3)
_cell_angle_gamma 90.
_cell_volume 618.37
_cell_formula_units_Z 4
_space_group_name_H-M_alt 'P 1 21/c 1'
_space_group_IT_number 14
loop_
_space_group_symop_id
_space_group_symop_operation_xyz
1 'x, -y+1/2, z+1/2'
2 '-x, -y, -z'
3 '-x, y+1/2, -z+1/2'
4 'x, y, z'
loop_
_atom_type_symbol
_atom_type_oxidation_number
Cs1+ 1
Fe3+ 3
P5+ 5
O2- -2
loop_
_atom_site_label
_atom_site_type_symbol
_atom_site_symmetry_multiplicity
_atom_site_Wyckoff_symbol
_atom_site_fract_x
_atom_site_fract_y
_atom_site_fract_z
_atom_site_U_iso_or_equiv
_atom_site_occupancy
Cs1 Cs1+ 4 e 0.69824(4) 0.70757(3) 0.03699(4) . 1.
Fe1 Fe3+ 4 e 0.2593(1) 0.60097(7) 0.24187(9) . 1.
P1 P5+ 4 e 0.3695(2) 0.5923(1) 0.6664(2) . 1.
P2 P5+ 4 e -.0775(2) 0.3745(1) 0.1814(2) . 1.
O1 O2- 4 e 0.5158(5) 0.5006(3) 0.7650(4) 0.0070(7) 1.
O2 O2- 4 e 0.4060(5) 0.7351(3) 0.7310(4) 0.0069(7) 1.
O3 O2- 4 e 0.3409(5) 0.5796(4) 0.4845(5) 0.0102(7) 1.
O4 O2- 4 e 0.1848(5) 0.5435(3) 0.7053(4) 0.0076(6) 1.
O5 O2- 4 e 0.8216(5) 0.3991(4) 0.0058(5) 0.0098(7) 1.
O6 O2- 4 e 0.1103(5) 0.4352(3) 0.2279(4) 0.0069(6) 1.
O7 O2- 4 e -.0671(5) 0.2264(3) 0.2336(4) 0.0068(7) 1.
loop_
_atom_site_aniso_label
_atom_site_aniso_type_symbol
_atom_site_aniso_U_11
_atom_site_aniso_U_22
_atom_site_aniso_U_33
_atom_site_aniso_U_12
_atom_site_aniso_U_13
_atom_site_aniso_U_23
Cs1 Cs1+ 0.0102(3) 0.0182(3) 0.0111(3) 0.0030(1) -.0046(2) -.00565(9)
Fe1 Fe3+ 0.0022(4) 0.0040(4) 0.0028(4) 0.0002(2) -.0017(3) -.0002(2)
P1 P5+ 0.0026(6) 0.0060(6) 0.0023(6) 0.0014(4) -.0015(5) 0.0006(4)
P2 P5+ 0.0024(6) 0.0050(6) 0.0027(6) 0.0004(4) -.0018(4) 0.0005(4)
#End of TTdata_73866-ICSD
#
