(C) 2022 by FIZ Karlsruhe - Leibniz Institute for Information Infrastructure.  All rights reserved.
data_72862-ICSD
_database_code_ICSD 72862
_audit_creation_date 1994-01-19
_chemical_name_common 'Nickel oxovanadium(IV) phosphate hydrate (0.5/1/1/1.5)'
_chemical_formula_structural 'Ni0.5 (V O) (P O4) (H2 O)1.5'
_chemical_formula_sum 'H3 Ni0.5 O6.5 P1 V1'
_exptl_crystal_density_diffrn 3.08
_citation_title

;
Hydrothermal synthesis and structural characterization of a nickel(II)
vanadyl(IV) phosphate hydrate : Ni0.5VOPO4 . 1.5H2O
;
loop_
_citation_id
_citation_journal_full
_citation_year
_citation_journal_volume
_citation_page_first
_citation_page_last
_citation_journal_id_ASTM
primary 'Journal of Solid State Chemistry' 1992 96 436 441 JSSCBI
loop_
_citation_author_citation_id
_citation_author_name
primary 'Lii, K.-H.'
primary 'Mao, L.F.'
_cell_length_a 10.344(1)
_cell_length_b 9.350(3)
_cell_length_c 9.731(1)
_cell_angle_alpha 90.
_cell_angle_beta 90.
_cell_angle_gamma 90.
_cell_volume 941.15
_cell_formula_units_Z 8
_space_group_name_H-M_alt 'P n m a'
_space_group_IT_number 62
loop_
_space_group_symop_id
_space_group_symop_operation_xyz
1 'x+1/2, y, -z+1/2'
2 'x, -y+1/2, z'
3 '-x+1/2, y+1/2, z+1/2'
4 '-x, -y, -z'
5 '-x+1/2, -y, z+1/2'
6 '-x, y+1/2, -z'
7 'x+1/2, -y+1/2, -z+1/2'
8 'x, y, z'
loop_
_atom_type_symbol
_atom_type_oxidation_number
Ni2+ 2
V4+ 4
P5+ 5
O2- -2
H1+ 1
loop_
_atom_site_label
_atom_site_type_symbol
_atom_site_symmetry_multiplicity
_atom_site_Wyckoff_symbol
_atom_site_fract_x
_atom_site_fract_y
_atom_site_fract_z
_atom_site_B_iso_or_equiv
_atom_site_occupancy
Ni1 Ni2+ 4 c 0.24853(6) 0.25 0.62234(7) 0.62(2) 1.
V1 V4+ 4 c 0.15368(9) 0.25 0.27382(9) 0.45(3) 1.
V2 V4+ 4 c 0.96550(8) 0.25 0.59372(9) 0.47(3) 1.
P1 P5+ 8 d 0.09614(8) 0.5508(1) 0.67758(9) 0.43(3) 1.
O1 O2- 8 d -.0986(2) 0.3951(3) 0.4696(2) 0.83(9) 1.
O2 O2- 8 d 0.0968(2) 0.3839(2) 0.6772(2) 0.53(9) 1.
O3 O2- 8 d -.0252(2) 0.5971(3) 0.7555(2) 0.71(9) 1.
O4 O2- 4 c 0.1461(3) 0.25 0.4416(4) 0.7(1) 1.
O5 O2- 4 c 0.3483(3) 0.25 0.7960(4) 0.8(1) 1.
O6 O2- 8 d 0.2164(2) 0.5972(3) 0.7549(3) 0.87(9) 1.
O7 O2- 8 d 0.3717(3) 0.4010(3) 0.5491(3) 1.4(1) 1.
O8 O2- 4 c 0.1396(5) 0.25 0.0435(4) 1.6(2) 1.
H1 H1+ 8 d 0.403(5) 0.470(6) 0.608(5) 5.70(16) 1.
H2 H1+ 8 d 0.357(5) 0.415(6) 0.485(5) 2.20(14) 1.
H3 H1+ 4 c 0.192(8) 0.25 0.004(9) 4.50(26) 1.
H4 H1+ 4 c 0.080(8) 0.25 0.012(9) 5.20(28) 1.
#End of TTdata_72862-ICSD
#
