(C) 2022 by FIZ Karlsruhe - Leibniz Institute for Information Infrastructure.  All rights reserved.
data_263038-ICSD
_database_code_ICSD 263038
_audit_creation_date 2013-02-01
_chemical_name_common 'Tricesium uranyl(V) bis(uranyl(IV/V)) bis(digermanate)'
_chemical_formula_structural 'Cs3.18 (U O) (U O)2 (Ge2 O7)2'
_chemical_formula_sum 'Cs3.18 Ge4 O17 U3'
_exptl_crystal_density_diffrn 5.46
_diffrn_ambient_temperature 296.
_citation_title

;
Mixed-valence uranium germanate and silicate: Cs(x) (U(V) O) (U(IV/V) O)2(Ge2
O7)2 (x = 3.18) and Cs4 (U(V) O) (U(IV/V) O)2 (Si2 O7)2
;
loop_
_citation_id
_citation_journal_full
_citation_year
_citation_journal_volume
_citation_page_first
_citation_page_last
_citation_journal_id_ASTM
primary 'Inorganic Chemistry' 2012 51 7463 7465 INOCAJ
loop_
_citation_author_citation_id
_citation_author_name
primary 'Chen Chunliang'
primary 'Nguyen Quang Bac'
primary 'Chen Chihshan'
primary 'Lii Kwanghwa'
_cell_length_a 11.7377(4)
_cell_length_b 7.7257(3)
_cell_length_c 11.9543(4)
_cell_angle_alpha 90.
_cell_angle_beta 107.671(2)
_cell_angle_gamma 90.
_cell_volume 1032.89
_cell_formula_units_Z 2
_space_group_name_H-M_alt 'C 1 2/m 1'
_space_group_IT_number 12
loop_
_space_group_symop_id
_space_group_symop_operation_xyz
1 '-x, y, -z'
2 '-x, -y, -z'
3 'x, -y, z'
4 'x, y, z'
5 '-x+1/2, y+1/2, -z'
6 '-x+1/2, -y+1/2, -z'
7 'x+1/2, -y+1/2, z'
8 'x+1/2, y+1/2, z'
loop_
_atom_type_symbol
_atom_type_oxidation_number
Cs1+ 1
U5+ 5
U5+ 4.8
Ge4+ 4
O2- -2
loop_
_atom_site_label
_atom_site_type_symbol
_atom_site_symmetry_multiplicity
_atom_site_Wyckoff_symbol
_atom_site_fract_x
_atom_site_fract_y
_atom_site_fract_z
_atom_site_U_iso_or_equiv
_atom_site_occupancy
Cs1 Cs1+ 4 i -0.1806(6) 0. 0.9874(5) 0.050(2) 0.150(4)
Cs2 Cs1+ 4 i 0.0358(2) 0. 0.0058(2) 0.0477(8) 0.442(4)
Cs3 Cs1+ 4 i 0.35215(6) 0.5 0.57737(7) 0.03276(19) 1
U1 U5+ 2 d 0. 0.5 0.5 0.00862(12) 1
U2 U5+ 4 i -0.04417(2) 0.5 0.81635(3) 0.00815(11) 1
Ge1 Ge4+ 8 j -0.33423(5) 0.29111(8) 0.73905(5) 0.00893(15) 1
O1 O2- 8 j -0.1796(4) 0.2976(6) 0.7996(4) 0.0175(10) 1
O2 O2- 8 j -0.4088(4) 0.1939(8) 0.8269(5) 0.0291(13) 1
O3 O2- 4 i -0.3896(8) 0.5 0.7086(13) 0.071(4) 1
O4 O2- 8 j -0.3768(5) 0.1937(9) 0.5989(5) 0.0347(15) 1
O5 O2- 4 i 0.0871(6) 0.5 0.3722(6) 0.0171(13) 1
O6 O2- 2 b 0. 0.5 1. 0.020(2) 1
loop_
_atom_site_aniso_label
_atom_site_aniso_type_symbol
_atom_site_aniso_U_11
_atom_site_aniso_U_22
_atom_site_aniso_U_33
_atom_site_aniso_U_12
_atom_site_aniso_U_13
_atom_site_aniso_U_23
Cs1 Cs1+ 0.066(4) 0.037(3) 0.029(3) 0. -0.015(3) 0.
Cs2 Cs1+ 0.072(2) 0.0329(10) 0.0398(12) 0. 0.0197(16) 0.
Cs3 Cs1+ 0.0116(3) 0.0492(5) 0.0350(4) 0. 0.0034(3) 0.
U1 U5+ 0.0091(2) 0.0049(2) 0.0087(2) 0. -0.00199(15) 0.
U2 U5+ 0.00390(15) 0.00796(17) 0.01236(17) 0. 0.00214(11) 0.
Ge1 Ge4+ 0.0076(3) 0.0049(3) 0.0130(3) -0.0023(2) 0.0011(2) -0.0009(2)
O1 O2- 0.008(2) 0.009(2) 0.033(3) -0.0014(17) 0.0029(18) 0.0017(19)
O2 O2- 0.021(3) 0.042(3) 0.024(3) -0.024(2) 0.006(2) -0.001(2)
O3 O2- 0.017(4) 0.005(4) 0.153(12) 0. -0.028(6) 0.
O4 O2- 0.041(3) 0.046(4) 0.022(3) -0.033(3) 0.016(2) -0.023(3)
O5 O2- 0.011(3) 0.022(4) 0.016(3) 0. 0.000(2) 0.
O6 O2- 0.018(5) 0.016(5) 0.024(5) 0. 0.005(4) 0.
#End of TTdata_263038-ICSD
#
