(C) 2022 by FIZ Karlsruhe - Leibniz Institute for Information Infrastructure.  All rights reserved.
data_73495-ICSD
_database_code_ICSD 73495
_audit_creation_date 1994-06-30
_audit_update_record 2010-08-01
_chemical_name_common 'Heminickel oxovanadium(IV) phosphate(V) dihydrate'
_chemical_formula_structural 'Ni0.5 (V O) (P O4) (H2 O)2'
_chemical_formula_sum 'H4 Ni0.5 O7 P1 V1'
_chemical_name_structure_type Ni(VOPO4)2(H2O)4
_exptl_crystal_density_diffrn 2.9
_diffrn_ambient_temperature 297.
_citation_title

;
Crystal structure of Ni0.5 V O P O4 * 2(H2 O), a layered vanadyl(IV) phosphate
hydrate with tetragonal symmetry
;
loop_
_citation_id
_citation_journal_full
_citation_year
_citation_journal_volume
_citation_page_first
_citation_page_last
_citation_journal_id_ASTM
primary 'Inorganic Chemistry' 1993 32 4153 4154 INOCAJ
loop_
_citation_author_citation_id
_citation_author_name
primary 'Lii, K.'
primary 'Wu, L.'
primary 'Gau, H.'
_cell_length_a 6.251
_cell_length_b 6.251
_cell_length_c 13.334(3)
_cell_angle_alpha 90.
_cell_angle_beta 90.
_cell_angle_gamma 90.
_cell_volume 521.03
_cell_formula_units_Z 4
_space_group_name_H-M_alt 'I 4/m'
_space_group_IT_number 87
loop_
_space_group_symop_id
_space_group_symop_operation_xyz
1 '-y, x, -z'
2 'y, -x, -z'
3 'x, y, -z'
4 '-x, -y, -z'
5 'y, -x, z'
6 '-y, x, z'
7 '-x, -y, z'
8 'x, y, z'
9 '-y+1/2, x+1/2, -z+1/2'
10 'y+1/2, -x+1/2, -z+1/2'
11 'x+1/2, y+1/2, -z+1/2'
12 '-x+1/2, -y+1/2, -z+1/2'
13 'y+1/2, -x+1/2, z+1/2'
14 '-y+1/2, x+1/2, z+1/2'
15 '-x+1/2, -y+1/2, z+1/2'
16 'x+1/2, y+1/2, z+1/2'
loop_
_atom_type_symbol
_atom_type_oxidation_number
Ni2+ 2
V4+ 4
P5+ 5
O2- -2
H1+ 1
loop_
_atom_site_label
_atom_site_type_symbol
_atom_site_symmetry_multiplicity
_atom_site_Wyckoff_symbol
_atom_site_fract_x
_atom_site_fract_y
_atom_site_fract_z
_atom_site_U_iso_or_equiv
_atom_site_occupancy
Ni1 Ni2+ 2 a 0 0 0 0.0156(2) 1.
V1 V4+ 4 e 0 0 0.27687(5) 0.0095(2) 1.
P1 P5+ 4 d 0.5 0 0.25 0.0100(3) 1.
O1 O2- 16 i 0.3026(2) -.0213(2) 0.3181(1) 0.0132(4) 1.
O2 O2- 4 e 0 0 0.1568(2) 0.0172(6) 1.
O3 O2- 8 h 0.2645(4) 0.1900(4) 0 0.0234(7) 1.
H1 H1+ 16 i 0.319(8) 0.174(7) -.060(3) 0.05(7) 1.
#End of TTdata_73495-ICSD
#
