(C) 2022 by FIZ Karlsruhe - Leibniz Institute for Information Infrastructure.  All rights reserved.
data_82536-ICSD
_database_code_ICSD 82536
_audit_creation_date 1997-11-10
_chemical_name_common
'Dirubidium hydrogenphosphato(V)tetrakis(phosphato(V))tetragallate hemihydrate'
_chemical_formula_structural 'Rb2 (Ga4 (H P O4) (P O4)4) (H2 O)0.5'
_chemical_formula_sum 'H2 Ga4 O20.5 P5 Rb2'
_exptl_crystal_density_diffrn 3.45
_diffrn_ambient_temperature 296.
_citation_title

;
Rb2 (Gs4 (H P O4) (P O4)4) . 0.5(H2 O) : a new gallium phosphate containing
four-, five, and six-coordinated gallium atoms
;
loop_
_citation_id
_citation_journal_full
_citation_year
_citation_journal_volume
_citation_page_first
_citation_page_last
_citation_journal_id_ASTM
primary 'Inorganic Chemistry' 1996 35 7440 7442 INOCAJ
loop_
_citation_author_citation_id
_citation_author_name
primary 'Lii, K.-H.'
_cell_length_a 5.0607(1)
_cell_length_b 21.6431(6)
_cell_length_c 8.2067(2)
_cell_angle_alpha 90.
_cell_angle_beta 91.768(1)
_cell_angle_gamma 90.
_cell_volume 898.45
_cell_formula_units_Z 2
_space_group_name_H-M_alt 'P 1 21 1'
_space_group_IT_number 4
loop_
_space_group_symop_id
_space_group_symop_operation_xyz
1 '-x, y+1/2, -z'
2 'x, y, z'
loop_
_atom_type_symbol
_atom_type_oxidation_number
Rb1+ 1
Ga3+ 3
P5+ 5
O2- -2
H1+ 1
loop_
_atom_site_label
_atom_site_type_symbol
_atom_site_symmetry_multiplicity
_atom_site_Wyckoff_symbol
_atom_site_fract_x
_atom_site_fract_y
_atom_site_fract_z
_atom_site_U_iso_or_equiv
_atom_site_occupancy
Rb1 Rb1+ 2 a 0.9823(3) 0 0.831(2) 0.0279(6) 1.
Rb2 Rb1+ 2 a 0.0067(4) 0.7241(1) 0.4274(2) 0.0292(6) 1.
Ga1 Ga3+ 2 a 0.0423(3) 0.6795(1) 0.9800(2) 0.0102(5) 1.
Ga2 Ga3+ 2 a 0.4625(3) 0.5872(1) 0.5384(2) 0.0099(5) 1.
Ga3 Ga3+ 2 a 0.9666(3) 0.9230(1) 0.3399(2) 0.0111(6) 1.
Ga4 Ga3+ 2 a 0.4771(3) 0.8430(1) 0.8359(2) 0.0119(6) 1.
P1 P5+ 2 a 0.0030(8) 0.8294(2) 0.0490(5) 0.011(1) 1.
P2 P5+ 2 a -.0314(8) 0.5602(2) 0.7484(5) 0.009(1) 1.
P3 P5+ 2 a 0.5072(8) 0.9371(2) 0.5451(4) 0.011(1) 1.
P4 P5+ 2 a 0.5401(8) 0.7102(2) 0.7407(5) 0.010(1) 1.
P5 P5+ 2 a 0.5391(7) 0.6249(2) 0.1743(5) 0.011(1) 1.
O1 O2- 2 a 0.088(2) 0.7633(6) 0.060(1) 0.022(3) 1.
O2 O2- 2 a 0.074(2) 0.8612(6) 0.214(1) 0.017(3) 1.
O3 O2- 2 a 0.153(2) 0.8637(6) -.085(1) 0.022(3) 1.
O4 O2- 2 a 0.703(2) 0.8389(6) 0.008(1) 0.015(2) 1.
O5 O2- 2 a 0.668(2) 0.5602(6) 0.712(1) 0.014(2) 1.
O6 O2- 2 a 0.069(2) 0.4938(5) 0.780(1) 0.008(2) 1.
O7 O2- 2 a 0.027(2) 0.5931(6) 0.909(1) 0.013(2) 1.
O8 O2- 2 a 0.109(2) 0.5874(6) 0.600(1) 0.013(3) 1.
O9 O2- 2 a 0.561(2) 0.9131(6) 0.717(1) 0.017(3) 1.
O10 O2- 2 a 0.609(2) 0.0021(6) 0.541(1) 0.016(2) 1.
O11 O2- 2 a 0.205(2) 0.9319(6) 0.513(1) 0.014(2) 1.
O12 O2- 2 a 0.651(2) 0.8969(6) 0.423(1) 0.021(3) 1.
O13 O2- 2 a 0.369(2) 0.6838(6) 0.870(1) 0.015(2) 1.
O14 O2- 2 a 0.498(2) 0.6745(6) 0.579(1) 0.017(2) 1.
O15 O2- 2 a 0.472(2) 0.7780(7) 0.699(1) 0.023(3) 1.
O16 O2- 2 a 0.837(2) 0.7082(5) 0.792(1) 0.014(3) 1.
O17 O2- 2 a 0.742(2) 0.6694(5) 0.123(1) 0.009(2) 1.
O18 O2- 2 a 0.625(2) 0.5983(5) 0.344(1) 0.017(3) 1.
O19 O2- 2 a 0.262(2) 0.6517(5) 0.171(1) 0.015(2) 1.
O20 O2- 2 a 0.541(2) 0.5648(6) 0.064(1) 0.015(2) 1.
O21 O2- 2 a 0.483(5) 0.771(2) 0.328(3) 0.037(8) 0.5
#End of TTdata_82536-ICSD
#
