(C) 2022 by FIZ Karlsruhe - Leibniz Institute for Information Infrastructure.  All rights reserved.
data_74046-ICSD
_database_code_ICSD 74046
_audit_creation_date 1995-01-10
_audit_update_record 2012-02-01
_chemical_name_common 'Calcium trinickel bis(diphosphate(V))'
_chemical_formula_structural 'Ca Ni3 (P2 O7)2'
_chemical_formula_sum 'Ca1 Ni3 O14 P4'
_chemical_name_structure_type CaNi3(P2O7)2
_exptl_crystal_density_diffrn 3.86
_diffrn_ambient_temperature 297.
_citation_title

;
A M3 (P2 O7)2 (A= alkaline-earth metals; M= Fe, Co, Ni): diphosphates
containing infinite chains of edge-sharing M O6 octahedra
;
loop_
_citation_id
_citation_journal_full
_citation_year
_citation_journal_volume
_citation_page_first
_citation_page_last
_citation_journal_id_ASTM
primary 'Inorganic Chemistry' 1993 32 4373 4377 INOCAJ
loop_
_citation_author_citation_id
_citation_author_name
primary 'Lii, K.-H.'
primary 'Shih, P.-F.'
primary 'Chen, T.-M.'
_cell_length_a 7.330(3)
_cell_length_b 7.589(3)
_cell_length_c 9.400(3)
_cell_angle_alpha 90.
_cell_angle_beta 111.90(3)
_cell_angle_gamma 90.
_cell_volume 485.16
_cell_formula_units_Z 2
_space_group_name_H-M_alt 'P 1 21/c 1'
_space_group_IT_number 14
loop_
_space_group_symop_id
_space_group_symop_operation_xyz
1 'x, -y+1/2, z+1/2'
2 '-x, -y, -z'
3 '-x, y+1/2, -z+1/2'
4 'x, y, z'
loop_
_atom_type_symbol
_atom_type_oxidation_number
Ca2+ 2
Ni2+ 2
P5+ 5
O2- -2
loop_
_atom_site_label
_atom_site_type_symbol
_atom_site_symmetry_multiplicity
_atom_site_Wyckoff_symbol
_atom_site_fract_x
_atom_site_fract_y
_atom_site_fract_z
_atom_site_U_iso_or_equiv
_atom_site_occupancy
Ca1 Ca2+ 2 b 0.5 0 0 0.0101(3) 1.
Ni1 Ni2+ 4 e 0.18474(7) 0.62706(6) 0.02500(5) 0.0069(2) 1.
Ni2 Ni2+ 2 a 0 0 0 0.0058(2) 1.
P1 P5+ 4 e 0.8802(1) 0.7044(1) 0.1915(1) 0.0047(3) 1.
P2 P5+ 4 e 0.5977(1) 0.4335(1) 0.2032(1) 0.0055(3) 1.
O1 O2- 4 e 0.3921(4) 0.4730(4) 0.1948(3) 0.0110(9) 1.
O2 O2- 4 e 0.0104(4) 0.2122(3) 0.1360(3) 0.0069(8) 1.
O3 O2- 4 e 0.9718(4) 0.5766(3) 0.1126(3) 0.0087(8) 1.
O4 O2- 4 e 0.6726(4) 0.6226(3) 0.1745(3) 0.0098(8) 1.
O5 O2- 4 e 0.6213(4) 0.3059(3) 0.0877(3) 0.0099(8) 1.
O6 O2- 4 e 0.2715(4) 0.8807(3) 0.1311(3) 0.0084(8) 1.
O7 O2- 4 e 0.83144(4) 0.8781(3) 0.1069(3) 0.0063(8) 1.
#End of TTdata_74046-ICSD
#
