(C) 2022 by FIZ Karlsruhe - Leibniz Institute for Information Infrastructure.  All rights reserved.
data_41108-ICSD
_database_code_ICSD 41108
_audit_creation_date 1999-11-30
_audit_update_record 2014-08-01
_chemical_name_common 'Cesium molybdenum phosphorus oxide (3/5/7/24)'
_chemical_formula_structural 'Cs3 (Mo5 P7 O24)'
_chemical_formula_sum 'Cs3 Mo5 O24 P7'
_chemical_name_structure_type Cs3Mo5P6O25
_exptl_crystal_density_diffrn 4.28
_citation_title

;
Cs3 Mo5 P7 O24: a molybdenum phosphate containing a cubane-like Mo4 O3P
cluster unit with 6 Mo-Mo bonds
;
loop_
_citation_id
_citation_journal_full
_citation_year
_citation_journal_volume
_citation_page_first
_citation_page_last
_citation_journal_id_ASTM
primary 'Journal of Solid State Chemistry' 1988 73 274 277 JSSCBI
loop_
_citation_author_citation_id
_citation_author_name
primary 'Wang, S.-L.'
primary 'Lii, K.-H.'
_cell_length_a 11.940(4)
_cell_length_b 11.940(4)
_cell_length_c 9.292(2)
_cell_angle_alpha 90.
_cell_angle_beta 90.
_cell_angle_gamma 120.
_cell_volume 1147.22
_cell_formula_units_Z 2
_space_group_name_H-M_alt 'P 3 1 c'
_space_group_IT_number 159
loop_
_space_group_symop_id
_space_group_symop_operation_xyz
1 '-x, -x+y, z+1/2'
2 'x-y, -y, z+1/2'
3 'y, x, z+1/2'
4 '-x+y, -x, z'
5 '-y, x-y, z'
6 'x, y, z'
loop_
_atom_type_symbol
_atom_type_oxidation_number
Mo3+ 3
Mo6+ 6
Mo3+ 3
Cs1+ 1
P5+ 5
P3- -3
O2- -2
loop_
_atom_site_label
_atom_site_type_symbol
_atom_site_symmetry_multiplicity
_atom_site_Wyckoff_symbol
_atom_site_fract_x
_atom_site_fract_y
_atom_site_fract_z
_atom_site_B_iso_or_equiv
_atom_site_occupancy
Mo1 Mo3+ 2 b 0.6667 0.3333 0.395 . 1.
Mo2 Mo6+ 2 a 0 0 -.035 . 1.
Mo3 Mo3+ 6 c 0.66921(6) 0.20342(5) 0.613(1) . 1.
Cs1 Cs1+ 6 c 0.30553(5) -.10305(5) 0.537 . 1.
P1 P5+ 6 c 0.6379(2) 0.0602(2) 0.295 . 1.
P2 P5+ 6 c 0.8485(2) 0.0874(2) -.284 . 1.
P3 P3- 2 b 0.6667 0.3333 0.81 . 1.
O1 O2- 6 c 0.6662(5) 0.1939(5) 0.256 . 1.
O3 O2- 6 c 0.5136(5) 0.1804(5) 0.497 . 1.
O4 O2- 6 c 0.6486(5) 0.0551(5) 0.472 . 1.
O5 O2- 6 c 0.8181(5) 0.1984(5) 0.729 . 1.
O6 O2- 6 c 0.5543(5) 0.0470(5) 0.75 . 1.
O7 O2- 6 c 0.9099(6) 0.0803(6) -.152 . 1.
O8 O2- 6 c 0.7528(5) 0.0448(5) 0.199 . 1.
O9 O2- 6 c 0.9257(6) 0.0992(5) -.419 . 1.
loop_
_atom_site_aniso_label
_atom_site_aniso_type_symbol
_atom_site_aniso_U_11
_atom_site_aniso_U_22
_atom_site_aniso_U_33
_atom_site_aniso_U_12
_atom_site_aniso_U_13
_atom_site_aniso_U_23
Mo1 Mo3+ 0.0038(4) 0.0038 0.0073(4) 0.0019 0 0
Mo2 Mo6+ 0.0044(4) 0.0044 0.0064(4) 0.0022 0 0
Mo3 Mo3+ 0.0062(3) 0.0048(2) 0.0073(3) 0.0033(2) 0.0002(2) -0.0007(2)
Cs1 Cs1+ 0.0162(2) 0.0183(2) 0.0208(2) 0.0034(2) 0.0041(2) -0.0045(2)
P1 P5+ 0.0057(7) 0.0054(7) 0.0082(8) 0.0029(6) 0.0000(6) 0.0018(6)
P2 P5+ 0.0047(7) 0.0051(7) 0.0081(8) 0.0026(6) -0.0009(6) -0.0002(6)
P3 P3- 0.006(4) 0.006 0.015(5) 0.003 0 0
O1 O2- 0.018(3) 0.009(2) 0.004(2) 0.008(2) 0.002(2) 0.001(2)
O3 O2- 0.007(2) 0.007(2) 0.015(2) 0.004(2) 0.000(2) 0.002(2)
O4 O2- 0.016(3) 0.011(2) 0.005(2) 0.009(2) -0.004(2) -0.002(2)
O5 O2- 0.007(2) 0.006(2) 0.014(2) 0.005(2) 0.002(2) 0.002(2)
O6 O2- 0.013(2) 0.006(2) 0.008(2) 0.007(2) -0.003(2) -0.005(2)
O7 O2- 0.013(3) 0.013(3) 0.024(3) 0.005(2) -0.008(2) 0.000(2)
O8 O2- 0.009(2) 0.009(2) 0.011(2) 0.005(2) 0.001(2) 0.002(2)
O9 O2- 0.014(2) 0.011(3) 0.016(3) 0.009(2) 0.004(2) 0.000(2)
#End of TTdata_41108-ICSD
#
