(C) 2022 by FIZ Karlsruhe - Leibniz Institute for Information Infrastructure.  All rights reserved.
data_63259-ICSD
_database_code_ICSD 63259
_audit_creation_date 1989-12-04
_audit_update_record 2012-08-01
_chemical_name_common 'Tetracesium octamolydatododecaphosphate(V)'
_chemical_formula_structural 'Cs4 (Mo8 P12 O52)'
_chemical_formula_sum 'Cs4 Mo8 O52 P12'
_chemical_name_structure_type Cs4Mo8P12O52
_exptl_crystal_density_diffrn 3.54
_citation_title

;
Layer and tunnel structure in new molybdenophosphates: Cs2 Mo4 P6 O26 and M4
Mo8 P12 O52 (M = Cs, Rb, K, Tl).
;
loop_
_citation_id
_citation_journal_full
_citation_year
_citation_journal_volume
_citation_page_first
_citation_page_last
_citation_journal_id_ASTM
primary 'Journal of Solid State Chemistry' 1987 69 320 328 JSSCBI
loop_
_citation_author_citation_id
_citation_author_name
primary 'Lii, K.-H.'
primary 'Haushalter, R.C.'
_cell_length_a 6.398(1)
_cell_length_b 19.497(6)
_cell_length_c 9.835(2)
_cell_angle_alpha 90.
_cell_angle_beta 107.06(3)
_cell_angle_gamma 90.
_cell_volume 1172.85
_cell_formula_units_Z 1
_space_group_name_H-M_alt 'P 1 21 1'
_space_group_IT_number 4
loop_
_space_group_symop_id
_space_group_symop_operation_xyz
1 '-x, y+1/2, -z'
2 'x, y, z'
loop_
_atom_type_symbol
_atom_type_oxidation_number
Cs1+ 1
Mo5+ 5
P5+ 5
O2- -2
loop_
_atom_site_label
_atom_site_type_symbol
_atom_site_symmetry_multiplicity
_atom_site_Wyckoff_symbol
_atom_site_fract_x
_atom_site_fract_y
_atom_site_fract_z
_atom_site_B_iso_or_equiv
_atom_site_occupancy
Cs1 Cs1+ 2 a 0.7337(5) 0.913 0.0039(3) 2.97(9) 1.
Cs2 Cs1+ 2 a 0.7146(3) 0.7472(2) -.3650(2) 2.14(8) 1.
Mo1 Mo5+ 2 a 0.4376(4) 0.0347(2) -.3906(3) 0.4(1) 1.
Mo2 Mo5+ 2 a 0.3539(4) 0.7449(2) -.0713(2) 0.28(9) 1.
Mo3 Mo5+ 2 a 0.0610(4) 0.7889(2) 0.3710(3) 0.3(1) 1.
Mo4 Mo5+ 2 a 0.1445(4) 0.0726(2) 0.0556(3) 0.3(1) 1.
P1 P5+ 2 a 0.236(1) 0.8766(4) -.3091(8) 0.3(1) 1.
P2 P5+ 2 a 0.899(1) 0.7318(4) 0.0313(7) 0.2(1) 1.
P3 P5+ 2 a 0.510(1) 0.8223(4) 0.2794(8) 0.5(1) 1.
P4 P5+ 2 a 0.257(1) 0.9457(4) 0.2931(8) 0.6(1) 1.
P5 P5+ 2 a 0.598(1) 0.0880(4) -.0431(8) 0.4(1) 1.
P6 P5+ 2 a 0.983(1) 0.0004(4) -.3000(7) 0.3(1) 1.
O1 O2- 2 a 0.331(3) 0.998(1) -.591(2) 0.8(4) 1.
O2 O2- 2 a 0.434(3) 0.117(1) -.442(2) 1.1(4) 1.
O3 O2- 2 a 0.747(3) 0.009(1) -.384(2) 0.8(4) 1.
O4 O2- 2 a 0.544(3) 0.052(1) -.186(2) 1.2(4) 1.
O5 O2- 2 a 0.402(3) 0.925(1) -.329(2) 0.6(4) 1.
O6 O2- 2 a 0.163(3) 0.822(1) -.422(2) 1.0(4) 1.
O7 O2- 2 a 0.026(3) 0.918(1) -.308(2) 0.8(4) 1.
O8 O2- 2 a 0.313(3) 0.841(1) -.165(2) 1.0(4) 1.
O9 O2- 2 a 0.419(3) 0.668(1) 0.064(2) 0.1(3) 1.
O10 O2- 2 a 0.288(3) 0.700(1) -.224(2) 0.7(4) 1.
O11 O2- 2 a 0.681(3) 0.753(1) -.060(2) 0.5(3) 1.
O12 O2- 2 a 0.455(3) 0.805(1) 0.125(2) 1.6(5) 1.
O13 O2- 2 a 0.049(3) 0.751(1) -.058(2) 0.9(4) 1.
O14 O2- 2 a 0.955(3) 0.778(1) 0.161(2) 0.6(4) 1.
O15 O2- 2 a 0.382(3) 0.788(1) 0.363(2) 0.7(4) 1.
O16 O2- 2 a 0.754(3) 0.815(1) 0.359(2) 0.3(3) 1.
O17 O2- 2 a 0.479(3) 0.903(1) 0.291(2) 0.4(3) 1.
O18 O2- 2 a 0.054(3) 0.710(1) 0.422(2) 0.8(4) 1.
O19 O2- 2 a 0.091(3) 0.894(1) 0.313(2) 0.3(2) 1.
O20 O2- 2 a 0.175(3) 0.979(1) 0.147(2) 0.4(4) 1.
O21 O2- 2 a 0.084(3) 0.159(1) -.074(2) 0.6(4) 1.
O22 O2- 2 a 0.220(4) 0.117(1) 0.205(2) 1.8(5) 1.
O23 O2- 2 a 0.830(3) 0.066(1) 0.050(2) 0.4(3) 1.
O24 O2- 2 a 0.038(3) 0.016(1) -.143(2) 0.4(4) 1.
O25 O2- 2 a 0.440(3) 0.062(1) 0.038(2) 0.8(4) 1.
O26 O2- 2 a 0.128(3) 0.034(1) -.379(2) 0.6(4) 1.
#End of TTdata_63259-ICSD
#
