(C) 2022 by FIZ Karlsruhe - Leibniz Institute for Information Infrastructure.  All rights reserved.
data_281432-ICSD
_database_code_ICSD 281432
_audit_creation_date 2004-04-01
_chemical_name_common 'Dipotassium indium hydroxide tetrasilicate'
_chemical_formula_structural 'K2 In (O H) (Si4 O10)'
_chemical_formula_sum 'H1 In1 K2 O11 Si4'
_exptl_crystal_density_diffrn 3.12
_diffrn_ambient_temperature 296.
_citation_title

;
Hydrothermal synthesis, crystal strucutre and solid-state NMR spectroscopy of
a new indium silicate: K2 In (O H) (Si4 O10)
;
loop_
_citation_id
_citation_journal_full
_citation_year
_citation_journal_volume
_citation_page_first
_citation_page_last
_citation_journal_id_ASTM
primary 'Inorganic Chemistry' 2003 42 4057 4061 INOCAJ
loop_
_citation_author_citation_id
_citation_author_name
primary 'Hung, L.-I.'
primary 'Wang, S.-L.'
primary 'Kao, H.-M.'
primary 'Lii, K.-H.'
_cell_length_a 11.4097(14)
_cell_length_b 8.3733(10)
_cell_length_c 11.6107(14)
_cell_angle_alpha 90.
_cell_angle_beta 112.201(2)
_cell_angle_gamma 90.
_cell_volume 1027.01
_cell_formula_units_Z 4
_space_group_name_H-M_alt 'P 1 21/m 1'
_space_group_IT_number 11
loop_
_space_group_symop_id
_space_group_symop_operation_xyz
1 'x, -y+1/2, z'
2 '-x, -y, -z'
3 '-x, y+1/2, -z'
4 'x, y, z'
loop_
_atom_type_symbol
_atom_type_oxidation_number
K1+ 1
In3+ 3
Si4+ 4
O2- -2
H1+ 1
loop_
_atom_site_label
_atom_site_type_symbol
_atom_site_symmetry_multiplicity
_atom_site_Wyckoff_symbol
_atom_site_fract_x
_atom_site_fract_y
_atom_site_fract_z
_atom_site_U_iso_or_equiv
_atom_site_occupancy
K1 K1+ 2 e 0.5631(3) 0.25 0.9390(2) 0.0197(5) 1.
K2 K1+ 2 e 0.0829(3) 0.25 0.5830(2) 0.0192(5) 1.
K3 K1+ 2 e 0.4703(3) 0.25 0.5394(3) 0.0246(6) 1.
K4 K1+ 2 e -.0109(4) 0.25 -.0267(3) 0.0413(9) 1.
In1 In3+ 4 f 0.28681(5) 0.00434(6) 0.21374(4) 0.00869(17) 1.
Si1 Si4+ 4 f 0.22252(19) -.0636(3) 0.46989(18) 0.0101(4) 1.
Si2 Si4+ 4 f 0.00936(19) 0.0688(2) 0.25471(18) 0.0097(4) 1.
Si3 Si4+ 4 f 0.24976(18) 0.0629(2) -.10276(18) 0.0091(4) 1.
Si4 Si4+ 4 f 0.39222(18) -.0588(2) -.26308(18) 0.0084(4) 1.
O1 O2- 4 f 0.2705(5) -.0035(8) 0.6139(5) 0.0166(11) 1.
O2 O2- 4 f 0.3226(5) -.0324(7) 0.4096(5) 0.0158(11) 1.
O3 O2- 4 f 0.0889(5) 0.0341(7) 0.4025(5) 0.0137(11) 1.
O4 O2- 2 e 0.1792(8) -.25 0.4633(8) 0.0181(17) 1.
O5 O2- 4 f 0.0902(5) 0.0390(7) 0.1722(5) 0.0152(11) 1.
O6 O2- 2 e -.0461(7) 0.25 0.2443(7) 0.0137(15) 1.
O7 O2- 4 f -.1120(5) -.0500(7) 0.2171(5) 0.0138(11) 1.
O8 O2- 4 f 0.2471(6) -.0088(9) 0.0207(5) 0.0221(13) 1.
O9 O2- 2 e 0.2911(8) 0.25 -.0951(9) 0.0228(19) 1.
O10 O2- 4 f 0.3544(5) -.0294(7) -.1428(5) 0.0150(11) 1.
O11 O2- 2 e 0.4111(8) -.25 -.2742(8) 0.0165(16) 1.
O12 O2- 4 f 0.5159(5) 0.0340(6) -.2524(5) 0.0130(10) 1.
O13 O2- 2 e 0.3304(8) 0.25 0.2438(9) 0.0203(18) 1.
O14 O2- 2 e 0.2560(9) -.25 0.2045(10) 0.024(2) 1.
H1 H1+ 2 e 0.426 0.25 0.2573 0.05 1.
H2 H1+ 2 e 0.2333 -.25 0.2793 0.05 1.
loop_
_atom_site_aniso_label
_atom_site_aniso_type_symbol
_atom_site_aniso_U_11
_atom_site_aniso_U_22
_atom_site_aniso_U_33
_atom_site_aniso_U_12
_atom_site_aniso_U_13
_atom_site_aniso_U_23
K1 K1+ 0.0259(13) 0.0116(11) 0.0183(12) 0 0.0045(10) 0
K2 K1+ 0.0249(13) 0.0156(12) 0.0197(12) 0 0.0115(10) 0
K3 K1+ 0.0222(13) 0.0198(13) 0.0292(14) 0 0.0067(11) 0
K4 K1+ 0.070(3) 0.0205(15) 0.0184(14) 0 -0.0003(15) 0
In1 In3+ 0.0101(3) 0.0053(2) 0.0100(3) -0.00012(18) 0.00312(18) -0.00038(18)
Si1 Si4+ 0.0130(9) 0.0076(9) 0.0099(8) 0.0007(7) 0.0044(7) 0.0004(7)
Si2 Si4+ 0.0101(9) 0.0075(9) 0.0110(9) 0.0005(7) 0.0033(7) 0.0002(7)
Si3 Si4+ 0.0101(9) 0.0062(9) 0.0101(8) 0.0014(7) 0.0027(7) 0.0005(7)
Si4 Si4+ 0.0084(8) 0.0064(9) 0.0093(8) -0.0004(7) 0.0020(7) -0.0009(7)
O1 O2- 0.013(2) 0.029(3) 0.006(2) 0.003(2) 0.0011(19) -0.001(2)
O2 O2- 0.013(2) 0.020(3) 0.014(2) 0.002(2) 0.004(2) 0.002(2)
O3 O2- 0.013(2) 0.015(3) 0.009(2) 0.002(2) 0.0000(19) -0.001(2)
O4 O2- 0.020(4) 0.007(4) 0.026(4) 0 0.009(3) 0
O5 O2- 0.011(2) 0.021(3) 0.012(2) 0.001(2) 0.003(2) 0.001(2)
O6 O2- 0.013(4) 0.006(3) 0.020(4) 0 0.003(3) 0
O7 O2- 0.012(2) 0.016(3) 0.011(2) -0.002(2) 0.0018(19) 0.004(2)
O8 O2- 0.023(3) 0.033(4) 0.012(2) 0.001(3) 0.008(2) 0.001(2)
O9 O2- 0.018(4) 0.010(4) 0.031(5) 0 0.000(4) 0
O10 O2- 0.014(2) 0.021(3) 0.010(2) 0.006(2) 0.004(2) 0.002(2)
O11 O2- 0.016(4) 0.010(4) 0.024(4) 0 0.008(3) 0
O12 O2- 0.012(2) 0.008(3) 0.018(2) -0.003(2) 0.005(2) -0.001(2)
O13 O2- 0.018(4) 0.009(4) 0.034(5) 0 0.011(4) 0
O14 O2- 0.027(5) 0.003(4) 0.046(6) 0 0.016(4) 0
#End of TTdata_281432-ICSD
#
