(C) 2022 by FIZ Karlsruhe - Leibniz Institute for Information Infrastructure.  All rights reserved.
data_165406-ICSD
_database_code_ICSD 165406
_audit_creation_date 2010-02-01
_audit_update_record 2015-02-01
_chemical_name_common
'Dicalcium vanadium(III) phosphate(V) bis(hydrogenphosphate(V)) hydrate'
_chemical_formula_structural 'Ca2 V (P O4) (H P O4)2 (H2 O)'
_chemical_formula_sum 'H4 Ca2 O13 P3 V1'
_chemical_name_structure_type Ca2VH2(PO4)3H2O
_exptl_crystal_density_diffrn 2.95
_diffrn_ambient_temperature 297.
_citation_title

;
Hydrothermal synthesis and structural characterization of two calcium
vanadium(III) phosphates: Ca2 V (P O4) (H P O4)2 * (H2 O) and Ca2 V (P O4) (P2
O7)
;
loop_
_citation_id
_citation_journal_full
_citation_year
_citation_journal_volume
_citation_page_first
_citation_page_last
_citation_journal_id_ASTM
primary 'Inorganic Chemistry' 1992 31 439 442 INOCAJ
loop_
_citation_author_citation_id
_citation_author_name
primary 'Lii, K.-H.'
primary 'Wen, N.S.'
primary 'Su, C.-C.'
primary 'Chueh, B.R.'
_cell_length_a 7.531(2)
_cell_length_b 15.522(4)
_cell_length_c 9.149(2)
_cell_angle_alpha 90.
_cell_angle_beta 113.52(2)
_cell_angle_gamma 90.
_cell_volume 980.63
_cell_formula_units_Z 4
_space_group_name_H-M_alt 'C 1 2/c 1'
_space_group_IT_number 15
loop_
_space_group_symop_id
_space_group_symop_operation_xyz
1 'x, -y, z+1/2'
2 '-x, -y, -z'
3 '-x, y, -z+1/2'
4 'x, y, z'
5 'x+1/2, -y+1/2, z+1/2'
6 '-x+1/2, -y+1/2, -z'
7 '-x+1/2, y+1/2, -z+1/2'
8 'x+1/2, y+1/2, z'
loop_
_atom_type_symbol
_atom_type_oxidation_number
Ca2+ 2
V3+ 3
P5+ 5
O2- -2
H1+ 1
O2- -2
H1+ 1
loop_
_atom_site_label
_atom_site_type_symbol
_atom_site_symmetry_multiplicity
_atom_site_Wyckoff_symbol
_atom_site_fract_x
_atom_site_fract_y
_atom_site_fract_z
_atom_site_U_iso_or_equiv
_atom_site_occupancy
Ca1 Ca2+ 8 f 0.27178(8) 0.50903(3) 0.06319(7) 0.0118(2) 1.
V1 V3+ 4 d 0.25 0.25 0.5 0.0060(2) 1.
P1 P5+ 4 e 0 0.39741(6) 0.25 0.0066(3) 1.
P2 P5+ 8 f 0.1703(1) 0.15158(4) 0.15179(8) 0.0076(2) 1.
O1 O2- 8 f 0.1848(3) 0.3442(1) 0.3433(2) 0.0114(6) 1.
O2 O2- 8 f 0.0375(3) 0.4528(1) 0.1293(2) 0.0144(7) 1.
O3 O2- 8 f 0.0872(3) 0.0609(1) 0.1212(2) 0.0134(7) 1.
O4 O2- 8 f 0.0345(3) 0.2225(1) 0.0546(2) 0.0114(6) 1.
O5 O2- 8 f 0.2522(3) 0.1667(1) 0.3322(2) 0.0127(7) 1.
O6 O2- 8 f 0.3374(3) 0.1448(1) 0.0904(2) 0.0172(7) 1.
H1 H1+ 8 f 0.9069 0.6865 0.0898 0.08(2) 1.
O7 O2- 4 e 0.5 0.3994(2) 0.25 0.018(1) 1.
H2 H1+ 8 f 0.573 0.3679 0.2256 0.05(1) 1.
#End of TTdata_165406-ICSD
#
