(C) 2022 by FIZ Karlsruhe - Leibniz Institute for Information Infrastructure.  All rights reserved.
data_238274-ICSD
_database_code_ICSD 238274
_audit_creation_date 2015-08-01
_chemical_name_common 'Hexacesium pentauranyl(VI) dioxo tetrakis(arsenate(V))'
_chemical_formula_structural 'Cs6 ((U O2)5 O2 (As O4)4)'
_chemical_formula_sum 'As4 Cs6 O28 U5'
_exptl_crystal_density_diffrn 5.67
_diffrn_ambient_temperature 296.
_citation_title

;
High-temperature, high-pressure hydrothermal synthesis, characterization, and
structural relationships of layered uranyl arsenates
;
loop_
_citation_id
_citation_journal_full
_citation_year
_citation_journal_volume
_citation_page_first
_citation_page_last
_citation_journal_id_ASTM
primary 'Inorganic Chemistry' 2014 53 9065 9072 INOCAJ
loop_
_citation_author_citation_id
_citation_author_name
primary 'Liu, Hsin-Kuan'
primary 'Ramachandran, Eswaran'
primary 'Chen, Yi-Hsin'
primary 'Chang, Wen-Jung'
primary 'Lii, Kwang-Hwa'
_cell_length_a 7.7628(3)
_cell_length_b 9.3324(4)
_cell_length_c 11.9336(4)
_cell_angle_alpha 75.611(2)
_cell_angle_beta 73.136(2)
_cell_angle_gamma 86.329(2)
_cell_volume 801.37
_cell_formula_units_Z 1
_space_group_name_H-M_alt 'P -1'
_space_group_IT_number 2
loop_
_space_group_symop_id
_space_group_symop_operation_xyz
1 '-x, -y, -z'
2 'x, y, z'
loop_
_atom_type_symbol
_atom_type_oxidation_number
Cs1+ 1
U6+ 6
As5+ 5
O2- -2
loop_
_atom_site_label
_atom_site_type_symbol
_atom_site_symmetry_multiplicity
_atom_site_Wyckoff_symbol
_atom_site_fract_x
_atom_site_fract_y
_atom_site_fract_z
_atom_site_U_iso_or_equiv
_atom_site_occupancy
Cs1 Cs1+ 2 i 0.11980(8) 0.70177(6) 0.46871(6) 0.02210(15) 1
Cs2 Cs1+ 2 i 0.06348(8) 0.62811(6) 0.12653(5) 0.02234(15) 1
Cs3 Cs1+ 2 i 0.99297(8) 0.12409(7) 0.23403(6) 0.02941(17) 1
U1 U6+ 2 i 0.55122(4) 1.01641(3) 0.15475(2) 0.00907(10) 1
U2 U6+ 2 i 0.49056(4) 0.37545(3) 0.27815(2) 0.00779(10) 1
U3 U6+ 1 f 0.5 1. 0.5 0.01001(12) 1
As1 As5+ 2 i 0.60243(11) 0.68822(8) 0.00709(7) 0.00904(17) 1
As2 As5+ 2 i 0.63493(11) 0.67666(8) 0.38420(7) 0.00835(17) 1
O1 O2- 2 i 0.8127(9) 0.6397(7) -0.0234(6) 0.0236(14) 1
O2 O2- 2 i 0.4632(8) 0.5773(6) 0.1235(5) 0.0158(12) 1
O3 O2- 2 i 0.5723(9) 0.8666(6) 0.0228(6) 0.0186(13) 1
O4 O2- 2 i 0.5198(10) 0.7219(6) -0.1154(6) 0.0208(14) 1
O5 O2- 2 i 0.8303(8) 0.5995(6) 0.3907(5) 0.0161(12) 1
O6 O2- 2 i 0.4852(8) 0.5694(6) 0.3664(5) 0.0129(11) 1
O7 O2- 2 i 0.6703(9) 0.8328(7) 0.2708(6) 0.0241(15) 1
O8 O2- 2 i 0.5225(8) 0.7422(6) 0.5088(5) 0.0141(12) 1
O9 O2- 2 i 0.7774(9) 1.0802(7) 0.0717(6) 0.0184(13) 1
O10 O2- 2 i 0.3254(9) 0.9474(7) 0.2347(6) 0.0188(13) 1
O11 O2- 2 i 0.2505(8) 0.3641(7) 0.3251(6) 0.0173(13) 1
O12 O2- 2 i 0.7319(8) 0.3907(7) 0.2305(6) 0.0175(13) 1
O13 O2- 2 i 0.2617(9) 0.9879(7) 0.5162(6) 0.0197(13) 1
O14 O2- 2 i 0.5459(9) 1.1191(6) 0.3103(5) 0.0127(12) 1
loop_
_atom_site_aniso_label
_atom_site_aniso_type_symbol
_atom_site_aniso_U_11
_atom_site_aniso_U_22
_atom_site_aniso_U_33
_atom_site_aniso_U_12
_atom_site_aniso_U_13
_atom_site_aniso_U_23
Cs1 Cs1+ 0.0165(3) 0.0186(3) 0.0298(3) -0.0035(2) -0.0069(2) -0.0021(2)
Cs2 Cs1+ 0.0171(3) 0.0252(3) 0.0224(3) 0.0000(2) -0.0035(2) -0.0038(2)
Cs3 Cs1+ 0.0153(3) 0.0366(3) 0.0265(3) 0.0018(2) -0.0015(2) 0.0045(3)
U1 U6+ 0.01301(17) 0.00648(15) 0.00724(16) -0.00081(11) -0.00260(12)
-0.00090(11)
U2 U6+ 0.00957(17) 0.00618(15) 0.00720(16) -0.00081(10) -0.00197(11)
-0.00109(11)
U3 U6+ 0.0122(2) 0.00755(19) 0.0090(2) -0.00292(15) -0.00364(16) 0.00186(15)
As1 As5+ 0.0133(4) 0.0064(3) 0.0071(4) -0.0001(3) -0.0034(3) -0.0005(3)
As2 As5+ 0.0094(4) 0.0069(3) 0.0087(4) 0.0003(3) -0.0030(3) -0.0016(3)
O1 O2- 0.016(3) 0.026(3) 0.023(3) 0.001(3) -0.004(3) 0.000(3)
O2 O2- 0.017(3) 0.013(3) 0.011(3) 0.004(2) -0.001(2) 0.004(2)
O3 O2- 0.033(4) 0.010(3) 0.019(3) 0.007(2) -0.014(3) -0.008(2)
O4 O2- 0.044(4) 0.007(2) 0.015(3) 0.003(3) -0.016(3) -0.001(2)
O5 O2- 0.015(3) 0.018(3) 0.017(3) 0.003(2) -0.008(2) -0.004(2)
O6 O2- 0.006(3) 0.015(3) 0.020(3) 0.004(2) -0.003(2) -0.010(2)
O7 O2- 0.023(4) 0.016(3) 0.025(4) -0.003(3) -0.007(3) 0.009(3)
O8 O2- 0.021(3) 0.008(2) 0.015(3) 0.001(2) -0.004(2) -0.007(2)
O9 O2- 0.020(3) 0.019(3) 0.016(3) -0.006(2) -0.004(3) -0.002(2)
O10 O2- 0.013(3) 0.024(3) 0.020(3) -0.004(2) -0.007(3) -0.003(3)
O11 O2- 0.008(3) 0.022(3) 0.017(3) -0.003(2) 0.003(2) -0.002(2)
O12 O2- 0.009(3) 0.015(3) 0.023(3) -0.001(2) 0.001(2) 0.000(2)
O13 O2- 0.016(3) 0.024(3) 0.014(3) -0.003(3) -0.002(2) 0.002(2)
O14 O2- 0.030(3) 0.004(2) 0.008(3) 0.005(2) -0.011(2) -0.002(2)
#End of TTdata_238274-ICSD
#
