(C) 2022 by FIZ Karlsruhe - Leibniz Institute for Information Infrastructure.  All rights reserved.
data_202396-ICSD
_database_code_ICSD 202396
_audit_creation_date 1988-05-17
_audit_update_record 1997-05-13
_chemical_name_common 'Silver molybdenum phosphorus oxide (1/5/8/33)'
_chemical_formula_structural 'Ag (Mo5 P8 O33)'
_chemical_formula_sum 'Ag1 Mo5 O33 P8'
_exptl_crystal_density_diffrn 3.55
_citation_title

;
Crystal structure and magnetic properties of a new molybdenophosphate: Ag Mo5
P8 O33
;
loop_
_citation_id
_citation_journal_full
_citation_year
_citation_journal_volume
_citation_page_first
_citation_page_last
_citation_journal_id_ASTM
primary 'Journal of Solid State Chemistry' 1987 71 131 138 JSSCBI
loop_
_citation_author_citation_id
_citation_author_name
primary 'Lii, K.-H.'
primary 'Johnston, D.C.'
primary 'Goshorn, D.P.'
primary 'Haushalter, R.C.'
_cell_length_a 23.0500(80)
_cell_length_b 4.831(4)
_cell_length_c 22.935(9)
_cell_angle_alpha 90.
_cell_angle_beta 90.42(5)
_cell_angle_gamma 90.
_cell_volume 2553.85
_cell_formula_units_Z 4
_space_group_name_H-M_alt 'I 1 2/a 1'
_space_group_IT_number 15
loop_
_space_group_symop_id
_space_group_symop_operation_xyz
1 'x+1/2, -y, z'
2 '-x, -y, -z'
3 '-x+1/2, y, -z'
4 'x, y, z'
5 'x, -y+1/2, z+1/2'
6 '-x+1/2, -y+1/2, -z+1/2'
7 '-x, y+1/2, -z+1/2'
8 'x+1/2, y+1/2, z+1/2'
loop_
_atom_type_symbol
_atom_type_oxidation_number
Ag1+ 1
Mo5+ 5
P5+ 5
O2- -2
loop_
_atom_site_label
_atom_site_type_symbol
_atom_site_symmetry_multiplicity
_atom_site_Wyckoff_symbol
_atom_site_fract_x
_atom_site_fract_y
_atom_site_fract_z
_atom_site_B_iso_or_equiv
_atom_site_occupancy
Ag1 Ag1+ 8 f 0.506(1) 0.44(1) 0.247(1) 4.(2) 0.25
Ag2 Ag1+ 8 f 0.505(2) 0.66(2) 0.258(1) 6.(2) 0.25
Mo1 Mo5+ 8 f 0.3425(1) 0.102(1) 0.3043(1) 0.13(7) 1.
Mo2 Mo5+ 8 f 0.4458(1) 0.3564(9) 0.0930(1) 0.14(7) 1.
Mo3 Mo5+ 4 e 0.25 0.989(1) 0 0.5(1) 1.
P1 P5+ 8 f 0.3755(4) 0.608(3) 0.2118(4) 0.4(2) 1.
P2 P5+ 8 f 0.3490(4) 0.846(3) 0.1013(4) 0.2(2) 1.
P3 P5+ 8 f 0.3521(4) -.395(3) 0.4011(4) 0.3(2) 1.
P4 P5+ 8 f 0.5389(4) 0.859(3) 0.1262(4) 0.5(2) 1.
O1 O2- 8 f 0.362(1) -.110(7) 0.376(1) 0.5(5) 1.
O2 O2- 8 f 0.321(1) 0.411(7) 0.359(1) 0.9(6) 1.
O3 O2- 8 f 0.277(1) -.008(7) 0.293(1) 1.4(6) 1.
O4 O2- 8 f 0.430(1) 0.275(7) 0.320(1) 0.7(6) 1.
O5 O2- 8 f 0.388(1) -.166(7) 0.255(1) 1.1(6) 1.
O6 O2- 8 f 0.341(1) 0.373(8) 0.238(1) 1.5(6) 1.
O7 O2- 8 f 0.429(1) 0.533(6) 0.182(1) 0.4(5) 1.
O8 O2- 8 f 0.335(1) 0.729(7) 0.164(1) 1.4(6) 1.
O9 O2- 8 f 0.387(1) 0.661(7) 0.070(1) 0.4(5) 1.
O10 O2- 8 f 0.290(1) 0.875(7) 0.071(1) 1.0(5) 1.
O11 O2- 8 f 0.324(1) -.389(7) 0.462(1) 0.4(5) 1.
O12 O2- 8 f 0.415(1) -.518(7) 0.417(1) 1.2(6) 1.
O13 O2- 8 f 0.458(1) 0.229(6) 0.028(1) 0.2(5) 1.
O14 O2- 8 f 0.508(1) 0.639(8) 0.091(1) 1.5(6) 1.
O15 O2- 8 f 0.374(1) 0.117(7) 0.113(1) 0.9(5) 1.
O16 O2- 8 f 0.496(1) 0.085(6) 0.141(1) 0.3(5) 1.
O17 O2- 4 e 0.25 0.38(1) 0 1.6(8) 1.
#End of TTdata_202396-ICSD
#
