(C) 2022 by FIZ Karlsruhe - Leibniz Institute for Information Infrastructure.  All rights reserved.
data_40208-ICSD
_database_code_ICSD 40208
_audit_creation_date 1999-11-30
_chemical_name_common 'Rubidium vanadium diphosphate(V) oxide (1/3/2/3.14)'
_chemical_formula_structural 'Rb V3 (P2 O7)2 O3.14'
_chemical_formula_sum 'O17.14 P4 Rb1 V3'
_exptl_crystal_density_diffrn 3.11
_citation_title
'Rb V3 P4 O(17+x) (x=0.14): A novel mixed-valence vanadium pyrophosphate'
loop_
_citation_id
_citation_journal_full
_citation_year
_citation_journal_volume
_citation_page_first
_citation_page_last
_citation_journal_id_ASTM
primary 'Inorganic Chemistry' 1990 29 3298 3301 INOCAJ
loop_
_citation_author_citation_id
_citation_author_name
primary 'Lii, K.-H.'
primary 'Lee, C.-S.'
_cell_length_a 13.651(2)
_cell_length_b 13.651(2)
_cell_length_c 7.289(2)
_cell_angle_alpha 90.
_cell_angle_beta 90.
_cell_angle_gamma 90.
_cell_volume 1358.3
_cell_formula_units_Z 4
_space_group_name_H-M_alt 'P 42/m n m'
_space_group_IT_number 136
loop_
_space_group_symop_id
_space_group_symop_operation_xyz
1 '-y+1/2, x+1/2, -z+1/2'
2 'y+1/2, -x+1/2, -z+1/2'
3 'y, x, -z'
4 '-y, -x, -z'
5 'y+1/2, -x+1/2, z+1/2'
6 '-y+1/2, x+1/2, z+1/2'
7 '-y, -x, z'
8 'y, x, z'
9 'x+1/2, -y+1/2, -z+1/2'
10 '-x+1/2, y+1/2, -z+1/2'
11 'x, y, -z'
12 '-x, -y, -z'
13 '-x+1/2, y+1/2, z+1/2'
14 'x+1/2, -y+1/2, z+1/2'
15 '-x, -y, z'
16 'x, y, z'
loop_
_atom_type_symbol
_atom_type_oxidation_number
Rb1+ 1
V4+ 4.43
P5+ 5
O2- -2
loop_
_atom_site_label
_atom_site_type_symbol
_atom_site_symmetry_multiplicity
_atom_site_Wyckoff_symbol
_atom_site_fract_x
_atom_site_fract_y
_atom_site_fract_z
_atom_site_U_iso_or_equiv
_atom_site_occupancy
Rb1 Rb1+ 4 f 0.19973(6) 0.19973(6) 0 0.0345(3) 1.
V1 V4+ 4 d 0.5 0 0.25 0.0313(6) 1.
V2 V4+ 4 g 0.6612(1) 0.6612(1) 0.5 0.082(4) 0.876(2)
V3 V4+ 4 g 0.3076(8) 0.3076(8) 0.5 0.082(4) 0.124(2)
V4 V4+ 4 g 0.1281(1) 0.1281(1) 0.5 0.077(4) 0.536(1)
V5 V4+ 4 g 0.0815(2) 0.0815(2) 0.5 0.077(2) 0.464(1)
P1 P5+ 16 k 0.47399(7) 0.23352(7) 0.8016(1) 0.077(2) 1.
O1 O2- 2 b 0 0 0.5 0.022(2) 1.
O2 O2- 4 c 0.5 0 0 0.018(2) 1.
O3 O2- 16 k 0.1786(2) 0.0412(2) 0.6906(4) 0.0124(8) 1.
O4 O2- 16 k 0.5276(2) 0.1424(2) 0.7502(4) 0.0129(8) 1.
O5 O2- 16 k 0.2518(2) 0.3849(2) 0.6812(49) 0.0156(8) 1.
O6 O2- 8 i 0.4248(3) 0.2204(3) 0 0.012(1) 1.
O7 O2- 4 g 0.9186(4) 0.0814(4) 0 0.026(2) 1.
O8 O2- 4 g 0.2116(5) 0.2116(5) 0.5 0.018(2) 0.64(1)
#End of TTdata_40208-ICSD
#
