(C) 2022 by FIZ Karlsruhe - Leibniz Institute for Information Infrastructure.  All rights reserved.
data_202860-ICSD
_database_code_ICSD 202860
_audit_creation_date 1990-06-08
_chemical_name_common 'Sodium dimolybdenum(IV) triphosphate'
_chemical_formula_structural 'Na Mo2 (P O4)3'
_chemical_formula_sum 'Mo2 Na1 O12 P3'
_chemical_name_structure_type Nasicon(high)#NaZr2(PO4)3
_exptl_crystal_density_diffrn 3.51
_citation_title 'Na Mo2 P3 O12: A New Phosphate of Mo(IV)'
loop_
_citation_id
_citation_journal_full
_citation_year
_citation_journal_volume
_citation_page_first
_citation_page_last
_citation_journal_id_ASTM
primary 'Journal of Solid State Chemistry' 1989 78 93 97 JSSCBI
loop_
_citation_author_citation_id
_citation_author_name
primary 'Lii, K.-H.'
primary 'Chen, J.J.'
primary 'Wang, S.-L.'
_cell_length_a 8.6160(7)
_cell_length_b 8.6160(7)
_cell_length_c 22.075(3)
_cell_angle_alpha 90.
_cell_angle_beta 90.
_cell_angle_gamma 120.
_cell_volume 1419.2
_cell_formula_units_Z 6
_space_group_name_H-M_alt 'R -3 c H'
_space_group_IT_number 167
loop_
_space_group_symop_id
_space_group_symop_operation_xyz
1 'x-y, -y, -z+1/2'
2 '-x, -x+y, -z+1/2'
3 'y, x, -z+1/2'
4 'x-y, x, -z'
5 'y, -x+y, -z'
6 '-x, -y, -z'
7 '-x+y, y, z+1/2'
8 'x, x-y, z+1/2'
9 '-y, -x, z+1/2'
10 '-x+y, -x, z'
11 '-y, x-y, z'
12 'x, y, z'
13 'x-y+2/3, -y+1/3, -z+5/6'
14 '-x+2/3, -x+y+1/3, -z+5/6'
15 'y+2/3, x+1/3, -z+5/6'
16 'x-y+2/3, x+1/3, -z+1/3'
17 'y+2/3, -x+y+1/3, -z+1/3'
18 '-x+2/3, -y+1/3, -z+1/3'
19 '-x+y+2/3, y+1/3, z+5/6'
20 'x+2/3, x-y+1/3, z+5/6'
21 '-y+2/3, -x+1/3, z+5/6'
22 '-x+y+2/3, -x+1/3, z+1/3'
23 '-y+2/3, x-y+1/3, z+1/3'
24 'x+2/3, y+1/3, z+1/3'
25 'x-y+1/3, -y+2/3, -z+1/6'
26 '-x+1/3, -x+y+2/3, -z+1/6'
27 'y+1/3, x+2/3, -z+1/6'
28 'x-y+1/3, x+2/3, -z+2/3'
29 'y+1/3, -x+y+2/3, -z+2/3'
30 '-x+1/3, -y+2/3, -z+2/3'
31 '-x+y+1/3, y+2/3, z+1/6'
32 'x+1/3, x-y+2/3, z+1/6'
33 '-y+1/3, -x+2/3, z+1/6'
34 '-x+y+1/3, -x+2/3, z+2/3'
35 '-y+1/3, x-y+2/3, z+2/3'
36 'x+1/3, y+2/3, z+2/3'
loop_
_atom_type_symbol
_atom_type_oxidation_number
Na1+ 1
Mo4+ 4
P5+ 5
O2- -2
loop_
_atom_site_label
_atom_site_type_symbol
_atom_site_symmetry_multiplicity
_atom_site_Wyckoff_symbol
_atom_site_fract_x
_atom_site_fract_y
_atom_site_fract_z
_atom_site_B_iso_or_equiv
_atom_site_occupancy
Na1 Na1+ 6 b 0 0 0 . 1.
Mo1 Mo4+ 12 c 0 0 0.14443(1) . 1.
P1 P5+ 18 e 0.2891(1) 0.2891(1) 0.25 . 1.
O1 O2- 36 f 0.1917(2) 0.0250(2) 0.08676(8) . 1.
O2 O2- 36 f 0.0201(1) -.1813(3) 0.19315(9) . 1.
loop_
_atom_site_aniso_label
_atom_site_aniso_type_symbol
_atom_site_aniso_U_11
_atom_site_aniso_U_22
_atom_site_aniso_U_33
_atom_site_aniso_U_12
_atom_site_aniso_U_13
_atom_site_aniso_U_23
Na1 Na1+ 0.034(1) 0.034(1) 0.010(1) 0.017 0 0
Mo1 Mo4+ 0.0050(2) 0.0050(2) 0.0041(2) 0.0025 0 0
P1 P5+ 0.0050(3) 0.0050(3) 0.0063(4) 0.0021(3) 0.0008(1) -.0008(1)
O1 O2- 0.0083(9) 0.0163(9) 0.0114(8) 0.0070(7) 0.0020(7) -.0002(7)
O2 O2- 0.020(1) 0.0143(9) 0.0136(9) 0.0106(8) -.0012(7) 0.0064(7)
#End of TTdata_202860-ICSD
#
