(C) 2022 by FIZ Karlsruhe - Leibniz Institute for Information Infrastructure.  All rights reserved.
data_74047-ICSD
_database_code_ICSD 74047
_audit_creation_date 1995-01-10
_chemical_name_common 'Calcium tricobalt bis(diphosphate)'
_chemical_formula_structural 'Ca Co3 (P2 O7)2'
_chemical_formula_sum 'Ca1 Co3 O14 P4'
_chemical_name_structure_type CaNi3(P2O7)2
_exptl_crystal_density_diffrn 3.79
_diffrn_ambient_temperature 296.
_citation_title

;
A M3 (P2 O7)2 (A= alkaline-earth metals; M= Fe, Co, Ni): diphosphates
containing infinite chains of edge-sharing M O6 octahedra
;
loop_
_citation_id
_citation_journal_full
_citation_year
_citation_journal_volume
_citation_page_first
_citation_page_last
_citation_journal_id_ASTM
primary 'Inorganic Chemistry' 1993 32 4373 4377 INOCAJ
loop_
_citation_author_citation_id
_citation_author_name
primary 'Lii, K.-H.'
primary 'Shih, P.-F.'
primary 'Chen, T.-M.'
_cell_length_a 7.394(1)
_cell_length_b 7.6266(9)
_cell_length_c 9.444(2)
_cell_angle_alpha 90.
_cell_angle_beta 111.73(2)
_cell_angle_gamma 90.
_cell_volume 494.71
_cell_formula_units_Z 2
_space_group_name_H-M_alt 'P 1 21/c 1'
_space_group_IT_number 14
loop_
_space_group_symop_id
_space_group_symop_operation_xyz
1 'x, -y+1/2, z+1/2'
2 '-x, -y, -z'
3 '-x, y+1/2, -z+1/2'
4 'x, y, z'
loop_
_atom_type_symbol
_atom_type_oxidation_number
Ca2+ 2
Co2+ 2
P5+ 5
O2- -2
loop_
_atom_site_label
_atom_site_type_symbol
_atom_site_symmetry_multiplicity
_atom_site_Wyckoff_symbol
_atom_site_fract_x
_atom_site_fract_y
_atom_site_fract_z
_atom_site_U_iso_or_equiv
_atom_site_occupancy
Ca1 Ca2+ 2 b 0.5 0 0 0.0131(6) 1.
Co1 Co2+ 4 e 0.1873(1) 0.6260(1) 0.0274(1) 0.0089(3) 1.
Co2 Co2+ 2 a 0 0 0 0.0082(4) 1.
P1 P5+ 4 e 0.8785(3) 0.7048(2) 0.1918(2) 0.0069(5) 1.
P2 P5+ 4 e 0.5974(2) 0.4339(2) 0.2038(2) 0.0078(5) 1.
O1 O2- 4 e 0.3936(7) 0.4755(6) 0.1937(5) 0.012(2) 1.
O2 O2- 4 e 0.0105(7) 0.2127(6) 0.1371(5) 0.010(2) 1.
O3 O2- 4 e 0.9725(7) 0.5789(6) 0.1138(5) 0.010(2) 1.
O4 O2- 4 e 0.6739(7) 0.6211(6) 0.1746(6) 0.011(2) 1.
O5 O2- 4 e 0.6201(7) 0.3065(6) 0.0892(5) 0.013(2) 1.
O6 O2- 4 e 0.2761(7) 0.8820(6) 0.1318(5) 0.010(2) 1.
O7 O2- 4 e 0.8286(7) 0.8780(6) 0.1072(5) 0.009(2) 1.
#End of TTdata_74047-ICSD
#
