(C) 2022 by FIZ Karlsruhe - Leibniz Institute for Information Infrastructure.  All rights reserved.
data_72636-ICSD
_database_code_ICSD 72636
_audit_creation_date 1994-01-19
_chemical_name_common 'Cesium oxovanadium(IV) phosphate'
_chemical_formula_structural 'Cs (V O) (P O4)'
_chemical_formula_sum 'Cs1 O5 P1 V1'
_chemical_name_structure_type RbVOPO4
_exptl_crystal_density_diffrn 3.56
_diffrn_ambient_temperature 297.
_citation_title

;
Rb V O P O4 and Cs V O P O4, two vanadyl(IV) orthophosphates with an
intersecting tunnel structure and discrete V O5 pyramids
;
loop_
_citation_id
_citation_journal_full
_citation_year
_citation_journal_volume
_citation_page_first
_citation_page_last
_citation_journal_id_ASTM
primary 'Journal of Solid State Chemistry' 1993 103 38 44 JSSCBI
loop_
_citation_author_citation_id
_citation_author_name
primary 'Lii, K.-H.'
primary 'Liu, W.-C.'
_cell_length_a 7.3665(15)
_cell_length_b 7.6146(15)
_cell_length_c 9.8035(17)
_cell_angle_alpha 90.
_cell_angle_beta 90.
_cell_angle_gamma 90.
_cell_volume 549.91
_cell_formula_units_Z 4
_space_group_name_H-M_alt 'P 21 21 21'
_space_group_IT_number 19
loop_
_space_group_symop_id
_space_group_symop_operation_xyz
1 '-x, y+1/2, -z+1/2'
2 'x+1/2, -y+1/2, -z'
3 '-x+1/2, -y, z+1/2'
4 'x, y, z'
loop_
_atom_type_symbol
_atom_type_oxidation_number
Cs1+ 1
V4+ 4
P5+ 5
O2- -2
loop_
_atom_site_label
_atom_site_type_symbol
_atom_site_symmetry_multiplicity
_atom_site_Wyckoff_symbol
_atom_site_fract_x
_atom_site_fract_y
_atom_site_fract_z
_atom_site_B_iso_or_equiv
_atom_site_occupancy
Cs1 Cs1+ 4 a 0.87100(9) 0.13496(9) 0.16473(7) 1.73(3) 1.
V1 V4+ 4 a 0.8878(3) 0.57196(22) 0.95834(15) 1.1(6) 1.
P1 P5+ 4 a 0.6580(3) 0.6306(4) 0.15445(25) 1.07(9) 1.
O1 O2- 4 a 0.6585(10) 0.486(1) 0.0418(7) 1.4(3) 1.
O2 O2- 4 a 0.0506(9) 0.4611(11) 0.0202(8) 1.8(3) 1.
O3 O2- 4 a 0.9840(9) 0.7616(10) 0.8425(8) 1.6(3) 1.
O4 O2- 4 a 0.8233(9) 0.7407(9) 0.1086(6) 1.4(3) 1.
O5 O2- 4 a 0.8054(9) 0.4496(10) 0.7947(7) 1.8(3) 1.
#End of TTdata_72636-ICSD
#
