(C) 2022 by FIZ Karlsruhe - Leibniz Institute for Information Infrastructure.  All rights reserved.
data_14262-ICSD
_database_code_ICSD 14262
_audit_creation_date 2021-02-01
_chemical_name_common 'Tribarium lead hydrate undecaborate trihydroxide'
_chemical_formula_structural '(Ba3 Pb (H2 O)) (B11 O19 (O H)3)'
_chemical_formula_sum 'H5 B11 Ba3 O23 Pb1'
_exptl_crystal_density_diffrn 4.18
_diffrn_ambient_temperature 296.
_citation_title

;
High-temperature, high-pressure hydrothermal synthesis, crystal structure, and
infrared and NMR spectroscopy of a barium lead borate with a 2D layer
structure: [Ba$_3$Pb(H$_2$O)][B$_{11}$O$_{19}$(OH)$_3$]
;
loop_
_citation_id
_citation_journal_full
_citation_year
_citation_journal_volume
_citation_page_first
_citation_page_last
_citation_journal_id_ASTM
primary 'Dalton Transactions' 2020 49 6220 6226 DTARAF
loop_
_citation_author_citation_id
_citation_author_name
primary 'Kuo, Yu-Chen'
primary 'Liu, Hsin-Kuan'
primary 'Wang, Sue-Lein'
primary 'Lii, Kwang-Hwa'
_cell_length_a 6.6580(2)
_cell_length_b 30.3359(8)
_cell_length_c 8.7411(2)
_cell_angle_alpha 90.
_cell_angle_beta 90.9520(10)
_cell_angle_gamma 90.
_cell_volume 1765.25
_cell_formula_units_Z 4
_space_group_name_H-M_alt 'P 1 21/n 1'
_space_group_IT_number 14
loop_
_space_group_symop_id
_space_group_symop_operation_xyz
1 '-x+1/2, y+1/2, -z+1/2'
2 '-x, -y, -z'
3 'x+1/2, -y+1/2, z+1/2'
4 'x, y, z'
loop_
_atom_type_symbol
_atom_type_oxidation_number
Ba2+ 2
Pb2+ 2
B3+ 3
O2- -2
H1+ 1
loop_
_atom_site_label
_atom_site_type_symbol
_atom_site_symmetry_multiplicity
_atom_site_Wyckoff_symbol
_atom_site_fract_x
_atom_site_fract_y
_atom_site_fract_z
_atom_site_U_iso_or_equiv
_atom_site_occupancy
Ba1 Ba2+ 4 e -0.08280(6) 0.678476(13) 0.17529(4) 0.01212(11) 1
Ba2 Ba2+ 4 e 0.31682(6) 0.680957(13) 0.83500(4) 0.01165(11) 1
Ba3 Ba2+ 4 e 0.76540(6) 0.516959(15) 0.16451(5) 0.01935(12) 1
Pb1 Pb2+ 4 e 0.62522(5) 0.602763(14) 0.50515(4) 0.03140(12) 1
B1 B3+ 4 e 0.2360(10) 0.7204(2) 0.4408(8) 0.0078(12) 1
B2 B3+ 4 e 0.4752(10) 0.6833(2) 0.2680(8) 0.0072(12) 1
B3 B3+ 4 e 0.5991(10) 0.7180(2) 0.5241(8) 0.0067(11) 1
B4 B3+ 4 e 0.4364(10) 0.7472(2) 0.0839(8) 0.0083(12) 1
B5 B3+ 4 e 0.8267(10) 0.6899(2) 0.7398(8) 0.0088(12) 1
B6 B3+ 4 e 0.7994(11) 0.6148(2) 0.8624(8) 0.0101(12) 1
B7 B3+ 4 e 0.0740(13) 0.5853(3) 0.6954(9) 0.0186(15) 1
B8 B3+ 4 e 0.1017(10) 0.5827(2) 0.9899(8) 0.0094(12) 1
B9 B3+ 4 e 0.3804(11) 0.6063(2) 0.1697(8) 0.0101(13) 1
B10 B3+ 4 e 0.2583(11) 0.5305(2) 0.1921(8) 0.0102(13) 1
B11 B3+ 4 e 0.0571(19) 0.5617(6) 0.4260(14) 0.048(3) 1
O1 O2- 4 e 0.0434(7) 0.73603(16) 0.4454(5) 0.0125(9) 1
O2 O2- 4 e 0.2723(7) 0.69179(16) 0.3231(5) 0.0114(9) 1
O3 O2- 4 e 0.3831(6) 0.73077(15) 0.5479(5) 0.0090(8) 1
O4 O2- 4 e 0.5148(7) 0.70451(15) 0.1218(5) 0.0092(8) 1
O5 O2- 4 e 0.6272(7) 0.69354(17) 0.3849(5) 0.0129(9) 1
O6 O2- 4 e 0.5035(7) 0.63546(15) 0.2420(5) 0.0110(9) 1
O7 O2- 4 e 0.7217(7) 0.75687(14) 0.5414(5) 0.0084(8) 1
O8 O2- 4 e 0.6512(7) 0.68624(15) 0.6556(6) 0.0109(9) 1
O9 O2- 4 e 0.9670(7) 0.72091(16) 0.7099(6) 0.0127(9) 1
O10 O2- 4 e 0.8693(7) 0.66189(15) 0.8588(5) 0.0114(9) 1
O11 O2- 4 e 0.8903(7) 0.59423(16) 0.9938(5) 0.0108(9) 1
O12 O2- 4 e 0.5812(7) 0.61484(17) 0.8666(6) 0.0149(9) 1
O13 O2- 4 e 0.8606(7) 0.59230(17) 0.7171(5) 0.0135(9) 1
O14 O2- 4 e 0.1650(14) 0.6269(3) 0.6184(10) 0.057(2) 1
O15 O2- 4 e 0.1202(11) 0.5543(4) 0.5853(9) 0.069(3) 1
O16 O2- 4 e 0.1832(7) 0.58082(17) 0.8349(5) 0.0143(9) 1
O17 O2- 4 e 0.1287(7) 0.53985(15) 0.0628(6) 0.0119(9) 1
O18 O2- 4 e 0.2203(7) 0.61823(15) 0.0770(5) 0.0100(8) 1
O19 O2- 4 e 0.4231(8) 0.56305(16) 0.2013(7) 0.0194(11) 1
O20 O2- 4 e 0.3560(8) 0.48719(15) 0.1688(6) 0.0145(9) 1
O21 O2- 4 e 0.1431(10) 0.5303(2) 0.3349(7) 0.0288(13) 1
O22 O2- 4 e 0.9162(13) 0.5942(4) 0.3699(9) 0.060(3) 1
O23 O2- 4 e 0.6601(17) 0.5199(3) 0.4741(10) 0.058(2) 1
loop_
_atom_site_aniso_label
_atom_site_aniso_type_symbol
_atom_site_aniso_U_11
_atom_site_aniso_U_22
_atom_site_aniso_U_33
_atom_site_aniso_U_12
_atom_site_aniso_U_13
_atom_site_aniso_U_23
Ba1 Ba2+ 0.00774(18) 0.0177(2) 0.01095(19) 0.00171(13) -0.00026(13) -0.00193(13)
Ba2 Ba2+ 0.00956(18) 0.01475(19) 0.01066(19) 0.00178(13) 0.00099(13) 0.00054(13)
Ba3 Ba2+ 0.00847(19) 0.0269(2) 0.0227(2) 0.00051(15) 0.00005(15) -0.01261(17)
Pb1 Pb2+ 0.02397(18) 0.0538(2) 0.01643(17) -0.00485(14) -0.00105(12) 0.00271(13)
B1 B3+ 0.009(3) 0.006(3) 0.008(3) -0.001(2) 0.002(2) 0.002(2)
B2 B3+ 0.005(3) 0.008(3) 0.009(3) 0.000(2) 0.000(2) -0.001(2)
B3 B3+ 0.009(3) 0.001(3) 0.010(3) 0.001(2) 0.000(2) 0.000(2)
B4 B3+ 0.007(3) 0.006(3) 0.011(3) 0.001(2) -0.001(2) 0.001(2)
B5 B3+ 0.008(3) 0.011(3) 0.008(3) 0.001(2) 0.001(2) -0.001(2)
B6 B3+ 0.009(3) 0.011(3) 0.010(3) -0.001(2) 0.001(2) 0.000(2)
B7 B3+ 0.016(4) 0.026(4) 0.013(3) 0.005(3) -0.005(3) -0.004(3)
B8 B3+ 0.011(3) 0.011(3) 0.007(3) -0.001(2) 0.000(2) -0.001(2)
B9 B3+ 0.013(3) 0.006(3) 0.011(3) 0.001(2) -0.001(3) 0.000(2)
B10 B3+ 0.011(3) 0.009(3) 0.010(3) 0.002(2) -0.001(2) 0.000(2)
B11 B3+ 0.033(6) 0.083(10) 0.027(6) 0.000(6) 0.000(5) -0.015(6)
O1 O2- 0.007(2) 0.018(2) 0.013(2) 0.0021(17) -0.0013(16) -0.0041(18)
O2 O2- 0.007(2) 0.017(2) 0.010(2) -0.0008(17) 0.0013(16) -0.0052(17)
O3 O2- 0.0051(19) 0.011(2) 0.011(2) 0.0011(15) -0.0004(15) -0.0022(16)
O4 O2- 0.010(2) 0.008(2) 0.010(2) 0.0030(16) 0.0001(16) 0.0005(16)
O5 O2- 0.008(2) 0.020(2) 0.011(2) 0.0000(17) -0.0013(16) -0.0090(18)
O6 O2- 0.013(2) 0.008(2) 0.012(2) 0.0006(16) -0.0044(17) -0.0005(16)
O7 O2- 0.007(2) 0.0074(19) 0.011(2) 0.0007(15) -0.0018(15) 0.0001(16)
O8 O2- 0.010(2) 0.009(2) 0.014(2) -0.0023(16) -0.0017(17) 0.0023(16)
O9 O2- 0.009(2) 0.013(2) 0.016(2) -0.0024(17) -0.0046(17) 0.0067(18)
O10 O2- 0.012(2) 0.011(2) 0.011(2) -0.0007(17) -0.0039(17) 0.0026(17)
O11 O2- 0.009(2) 0.012(2) 0.012(2) 0.0015(16) -0.0008(17) 0.0008(16)
O12 O2- 0.008(2) 0.016(2) 0.020(2) 0.0007(17) -0.0014(18) 0.0027(19)
O13 O2- 0.009(2) 0.023(2) 0.009(2) 0.0024(18) -0.0021(16) -0.0017(18)
O14 O2- 0.048(5) 0.077(6) 0.045(5) -0.022(5) 0.000(4) 0.016(4)
O15 O2- 0.025(4) 0.154(10) 0.027(4) 0.034(5) -0.010(3) -0.050(5)
O16 O2- 0.011(2) 0.022(2) 0.009(2) 0.0024(18) -0.0004(17) -0.0015(18)
O17 O2- 0.014(2) 0.009(2) 0.013(2) 0.0003(16) -0.0043(17) -0.0009(17)
O18 O2- 0.011(2) 0.010(2) 0.010(2) 0.0001(16) -0.0024(16) -0.0001(16)
O19 O2- 0.015(2) 0.010(2) 0.033(3) -0.0003(18) -0.012(2) 0.002(2)
O20 O2- 0.015(2) 0.008(2) 0.020(2) 0.0033(17) -0.0010(19) -0.0002(18)
O21 O2- 0.031(3) 0.043(4) 0.013(3) 0.009(3) 0.007(2) 0.000(2)
O22 O2- 0.043(5) 0.117(8) 0.019(3) -0.013(5) 0.004(3) -0.015(4)
O23 O2- 0.099(8) 0.038(4) 0.036(4) -0.008(4) 0.006(5) -0.001(3)
#End of TTdata_14262-ICSD
#
