(C) 2022 by FIZ Karlsruhe - Leibniz Institute for Information Infrastructure.  All rights reserved.
data_419784-ICSD
_database_code_ICSD 419784
_audit_creation_date 2009-02-01
_chemical_name_common 'Tricesium diuranium(V,VI) tetraoxide digermanate'
_chemical_formula_structural 'Cs3 (U2 O4) (Ge2 O7)'
_chemical_formula_sum 'Cs3 Ge2 O11 U2'
_chemical_name_structure_type Rb3U2O4Ge2O7
_exptl_crystal_density_diffrn 5.83
_diffrn_ambient_temperature 296.
_citation_title
'A3 (U2 O4) (Ge2 O7) (A = Rb, Cs): Mixed-valence uranium(V,VI) germanates'
loop_
_citation_id
_citation_journal_full
_citation_year
_citation_journal_volume
_citation_page_first
_citation_page_last
_citation_journal_id_ASTM
primary 'Angewandte Chemie, International Edition' 2008 47 8711 8713 ACIEF5
loop_
_citation_author_citation_id
_citation_author_name
primary 'Lin Chiahui'
primary 'Lii Kwanghwa'
_cell_length_a 7.1054(3)
_cell_length_b 12.5728(5)
_cell_length_c 15.5611(6)
_cell_angle_alpha 90.
_cell_angle_beta 101.312(2)
_cell_angle_gamma 90.
_cell_volume 1363.14
_cell_formula_units_Z 4
_space_group_name_H-M_alt 'P 1 21/n 1'
_space_group_IT_number 14
loop_
_space_group_symop_id
_space_group_symop_operation_xyz
1 '-x+1/2, y+1/2, -z+1/2'
2 '-x, -y, -z'
3 'x+1/2, -y+1/2, z+1/2'
4 'x, y, z'
loop_
_atom_type_symbol
_atom_type_oxidation_number
Cs1+ 1
U6+ 5.5
Ge4+ 4
O2- -2
loop_
_atom_site_label
_atom_site_type_symbol
_atom_site_symmetry_multiplicity
_atom_site_Wyckoff_symbol
_atom_site_fract_x
_atom_site_fract_y
_atom_site_fract_z
_atom_site_U_iso_or_equiv
_atom_site_occupancy
Cs1 Cs1+ 4 e -0.89061(6) 0.14882(4) 0.66561(3) 0.01970(11) 1
Cs2 Cs1+ 4 e -0.57913(6) -0.67374(3) 0.42430(3) 0.01992(10) 1
Cs3 Cs1+ 4 e -0.92365(7) -0.15687(4) 0.59317(3) 0.02689(12) 1
U1 U6+ 2 d 0. 0.5 0.5 0.00662(8) 1
U2 U6+ 2 c -0.5 0. 0.5 0.00618(8) 1
U3 U6+ 4 e -0.60717(3) 0.054685(17) 0.240679(15) 0.00499(6) 1
Ge1 Ge4+ 4 e -0.37224(9) -0.42328(5) 0.32582(4) 0.00674(13) 1
Ge2 Ge4+ 4 e -0.61179(9) -0.20864(5) 0.33844(4) 0.00707(13) 1
O1 O2- 4 e -0.2839(7) -0.5122(4) 0.4090(3) 0.0148(10) 1
O2 O2- 4 e -0.5807(6) -0.4704(4) 0.2585(3) 0.0112(9) 1
O3 O2- 4 e -0.1964(6) -0.4018(4) 0.2627(3) 0.0127(9) 1
O4 O2- 4 e -0.4197(6) -0.3000(4) 0.3724(3) 0.0127(9) 1
O5 O2- 4 e -0.8116(6) -0.2766(4) 0.2822(3) 0.0113(9) 1
O6 O2- 4 e -0.6500(7) -0.1459(4) 0.4336(3) 0.0127(9) 1
O7 O2- 4 e -0.5424(7) -0.1156(4) 0.2680(3) 0.0153(10) 1
O8 O2- 4 e 0.0323(7) 0.3568(4) 0.4959(3) 0.0158(10) 1
O9 O2- 4 e 0.1522(7) 0.5226(4) 0.3870(3) 0.0138(10) 1
O10 O2- 4 e -0.7345(7) 0.0450(4) 0.5187(3) 0.0166(10) 1
O11 O2- 4 e -0.5477(7) 0.0859(4) 0.3717(3) 0.0129(9) 1
loop_
_atom_site_aniso_label
_atom_site_aniso_type_symbol
_atom_site_aniso_U_11
_atom_site_aniso_U_22
_atom_site_aniso_U_33
_atom_site_aniso_U_12
_atom_site_aniso_U_13
_atom_site_aniso_U_23
Cs1 Cs1+ 0.0135(2) 0.0179(2) 0.0311(3) 0.00029(16) 0.01268(18) -0.00313(18)
Cs2 Cs1+ 0.0203(2) 0.0153(2) 0.0267(3) 0.00254(17) 0.01082(18) 0.00321(17)
Cs3 Cs1+ 0.0296(3) 0.0232(2) 0.0235(3) -0.0041(2) -0.0058(2) -0.00604(19)
U1 U6+ 0.00627(14) 0.00773(15) 0.00621(15) 0.00115(11) 0.00211(11) 0.00053(11)
U2 U6+ 0.00667(14) 0.00773(14) 0.00455(15) 0.00112(11) 0.00213(11) -0.00061(11)
U3 U6+ 0.00365(10) 0.00704(11) 0.00462(11) -0.00005(8) 0.00164(8) 0.00041(8)
Ge1 Ge4+ 0.0038(3) 0.0087(3) 0.0079(3) 0.0005(2) 0.0017(2) -0.0002(2)
Ge2 Ge4+ 0.0061(3) 0.0064(3) 0.0089(3) -0.0002(2) 0.0018(2) -0.0013(2)
O1 O2- 0.009(2) 0.017(2) 0.017(3) -0.0007(18) -0.0003(19) 0.0071(19)
O2 O2- 0.0042(19) 0.013(2) 0.016(2) -0.0009(17) 0.0008(17) -0.0039(18)
O3 O2- 0.006(2) 0.019(2) 0.014(2) 0.0015(18) 0.0043(18) 0.0022(19)
O4 O2- 0.008(2) 0.012(2) 0.017(2) 0.0030(18) -0.0011(18) -0.0027(19)
O5 O2- 0.009(2) 0.009(2) 0.015(2) -0.0022(17) -0.0011(17) -0.0016(18)
O6 O2- 0.013(2) 0.014(2) 0.013(2) -0.0007(18) 0.0063(18) -0.0043(18)
O7 O2- 0.014(2) 0.012(2) 0.021(3) -0.0005(19) 0.006(2) 0.004(2)
O8 O2- 0.015(2) 0.011(2) 0.022(3) -0.0008(19) 0.006(2) 0.0012(19)
O9 O2- 0.013(2) 0.021(2) 0.008(2) 0.0046(19) 0.0040(18) 0.0041(19)
O10 O2- 0.009(2) 0.018(2) 0.023(3) 0.0053(19) 0.0042(19) -0.002(2)
O11 O2- 0.017(2) 0.014(2) 0.006(2) 0.0011(19) 0.0010(18) 0.0004(18)
#End of TTdata_419784-ICSD
#
