(C) 2022 by FIZ Karlsruhe - Leibniz Institute for Information Infrastructure.  All rights reserved.
data_202912-ICSD
_database_code_ICSD 202912
_audit_creation_date 1990-06-08
_audit_update_record 1991-04-20
_chemical_name_common 'Sodium dimolybenum tetraphosphate'
_chemical_formula_structural 'Na Mo2 (P4 O14)'
_chemical_formula_sum 'Mo2 Na1 O14 P4'
_chemical_name_structure_type SrV2(P2O7)2
_exptl_crystal_density_diffrn 3.47
_citation_title
'Na Mo2 P4 O14: A Mixed-Valence Molybdenum Phosphate with a Tunnel Structure'
loop_
_citation_id
_citation_journal_full
_citation_year
_citation_journal_volume
_citation_page_first
_citation_page_last
_citation_journal_id_ASTM
primary 'Journal of Solid State Chemistry' 1989 78 178 183 JSSCBI
loop_
_citation_author_citation_id
_citation_author_name
primary 'Lii, K.-H.'
primary 'Chen, J.J.'
primary 'Wang, S.-L.'
_cell_length_a 4.872(1)
_cell_length_b 7.0025(7)
_cell_length_c 8.2620(6)
_cell_angle_alpha 91.468(8)
_cell_angle_beta 92.53(1)
_cell_angle_gamma 106.61(1)
_cell_volume 269.63
_cell_formula_units_Z 1
_space_group_name_H-M_alt 'P -1'
_space_group_IT_number 2
loop_
_space_group_symop_id
_space_group_symop_operation_xyz
1 '-x, -y, -z'
2 'x, y, z'
loop_
_atom_type_symbol
_atom_type_oxidation_number
Na1+ 1
Mo4+ 4
Mo3+ 3
P5+ 5
O2- -2
loop_
_atom_site_label
_atom_site_type_symbol
_atom_site_symmetry_multiplicity
_atom_site_Wyckoff_symbol
_atom_site_fract_x
_atom_site_fract_y
_atom_site_fract_z
_atom_site_B_iso_or_equiv
_atom_site_occupancy
Na1 Na1+ 2 i 0.4051(24) 0.0098(10) -.0263(10) . 0.5
Mo1 Mo4+ 1 f 0.5 0 0.5 . 1.
Mo2 Mo3+ 1 c 0 0.5 0 . 1.
P1 P5+ 2 i 0.11901(21) 0.24162(15) 0.69430(12) . 1.
P2 P5+ 2 i 0.52288(21) 0.63153(15) 0.75681(12) . 1.
O1 O2- 2 i 0.3926(7) 0.1928(4) 0.3504(4) . 1.
O2 O2- 2 i 0.7737(7) 0.5568(5) 0.7999(4) . 1.
O3 O2- 2 i 0.3717(6) 0.6786(5) 0.9029(4) . 1.
O4 O2- 2 i 0.9691(7) 0.7539(4) 0.1327(4) . 1.
O5 O2- 2 i 0.1270(6) -.1917(4) 0.4327(4) . 1.
O6 O2- 2 i 0.3111(6) 0.1035(4) 0.6808(4) . 1.
O7 O2- 2 i -.2978(6) 0.5410(4) 0.3512(4) . 1.
loop_
_atom_site_aniso_label
_atom_site_aniso_type_symbol
_atom_site_aniso_U_11
_atom_site_aniso_U_22
_atom_site_aniso_U_33
_atom_site_aniso_U_12
_atom_site_aniso_U_13
_atom_site_aniso_U_23
Na1 Na1+ 0.174(12) 0.019(3) 0.052(5) 0.024(5) -.027(5) -.011(3)
Mo1 Mo4+ 0.0039(2) 0.0037(2) 0.0045(2) 0.0013(2) 0.0000(2) 0.0002(2)
Mo2 Mo3+ 0.0045(2) 0.0050(2) 0.0041(2) 0.0022(2) 0.0004(2) 0.0000(2)
P1 P5+ 0.0055(4) 0.0054(4) 0.0066(5) 0.0013(4) 0.0002(4) -.0016(3)
P2 P5+ 0.0052(4) 0.0050(4) 0.0058(5) 0.0012(3) -.0001(3) 0.0008(3)
O1 O2- 0.0125(14) 0.0093(14) 0.0137(15) 0.0024(11) -.0002(11) 0.0058(11)
O2 O2- 0.0118(14) 0.0175(15) 0.0103(14) 0.0091(12) -.0024(11) 0.0024(12)
O3 O2- 0.0095(14) 0.0119(14) 0.0105(14) 0.0002(11) 0.0044(11) -.0023(11)
O4 O2- 0.0150(14) 0.0083(13) 0.0088(14) 0.0053(11) 0.0032(11) 0.0003(11)
O5 O2- 0.0091(14) 0.0095(14) 0.0113(14) -.0002(11) -.0018(11) -.0001(11)
O6 O2- 0.0123(14) 0.0109(14) 0.0095(14) 0.0068(11) 0.0019(11) -.0008(11)
O7 O2- 0.0094(13) 0.0071(13) 0.0099(14) -.0019(11) -.0011(11) -.0007(11)
#End of TTdata_202912-ICSD
#
