(C) 2022 by FIZ Karlsruhe - Leibniz Institute for Information Infrastructure.  All rights reserved.
data_10734-ICSD
_database_code_ICSD 10734
_audit_creation_date 2020-08-01
_chemical_name_common
'Decacalcium decasodium dotetracontaoxononatellurate(VI) monohydrate'
_chemical_formula_structural 'Ca10 Na10 Te9 O42 (H2 O)'
_chemical_formula_sum 'H2 Ca10 Na10 O43 Te9'
_exptl_crystal_density_diffrn 4.51
_diffrn_ambient_temperature 296.
_citation_title

;
Ca$_{10}$Na$_{10}$[Te$_9$O$_{42}$](H$_2$O): a hydrothermally synthesized
quaternary tellurium(vi) oxide containing edge-sharing octahedral trimers
;
loop_
_citation_id
_citation_journal_full
_citation_year
_citation_journal_volume
_citation_page_first
_citation_page_last
_citation_journal_id_ASTM
primary 'Dalton Transactions' 2019 48 15231 15235 DTARAF
loop_
_citation_author_citation_id
_citation_author_name
primary 'Zhang, Li-Yun'
primary 'Lii, Kwang-Hwa'
_cell_length_a 9.743(2)
_cell_length_b 9.743(2)
_cell_length_c 66.337(13)
_cell_angle_alpha 90.00(3)
_cell_angle_beta 90.00(3)
_cell_angle_gamma 120.00(3)
_cell_volume 5453.45
_cell_formula_units_Z 6
_space_group_name_H-M_alt 'R -3 c H'
_space_group_IT_number 167
loop_
_space_group_symop_id
_space_group_symop_operation_xyz
1 'x-y, -y, -z+1/2'
2 '-x, -x+y, -z+1/2'
3 'y, x, -z+1/2'
4 'x-y, x, -z'
5 'y, -x+y, -z'
6 '-x, -y, -z'
7 '-x+y, y, z+1/2'
8 'x, x-y, z+1/2'
9 '-y, -x, z+1/2'
10 '-x+y, -x, z'
11 '-y, x-y, z'
12 'x, y, z'
13 'x-y+2/3, -y+1/3, -z+5/6'
14 '-x+2/3, -x+y+1/3, -z+5/6'
15 'y+2/3, x+1/3, -z+5/6'
16 'x-y+2/3, x+1/3, -z+1/3'
17 'y+2/3, -x+y+1/3, -z+1/3'
18 '-x+2/3, -y+1/3, -z+1/3'
19 '-x+y+2/3, y+1/3, z+5/6'
20 'x+2/3, x-y+1/3, z+5/6'
21 '-y+2/3, -x+1/3, z+5/6'
22 '-x+y+2/3, -x+1/3, z+1/3'
23 '-y+2/3, x-y+1/3, z+1/3'
24 'x+2/3, y+1/3, z+1/3'
25 'x-y+1/3, -y+2/3, -z+1/6'
26 '-x+1/3, -x+y+2/3, -z+1/6'
27 'y+1/3, x+2/3, -z+1/6'
28 'x-y+1/3, x+2/3, -z+2/3'
29 'y+1/3, -x+y+2/3, -z+2/3'
30 '-x+1/3, -y+2/3, -z+2/3'
31 '-x+y+1/3, y+2/3, z+1/6'
32 'x+1/3, x-y+2/3, z+1/6'
33 '-y+1/3, -x+2/3, z+1/6'
34 '-x+y+1/3, -x+2/3, z+2/3'
35 '-y+1/3, x-y+2/3, z+2/3'
36 'x+1/3, y+2/3, z+2/3'
loop_
_atom_type_symbol
_atom_type_oxidation_number
Te6+ 6
Ca2+ 2
Na1+ 1
O2- -2
H1+ 1
loop_
_atom_site_label
_atom_site_type_symbol
_atom_site_symmetry_multiplicity
_atom_site_Wyckoff_symbol
_atom_site_fract_x
_atom_site_fract_y
_atom_site_fract_z
_atom_site_U_iso_or_equiv
_atom_site_occupancy
Te1 Te6+ 18 e 0.66594(2) 0.666667 0.416667 0.00519(7) 1
Te2 Te6+ 36 f 0.66702(2) 0.67031(2) 0.36918(2) 0.00572(7) 1
Ca1 Ca2+ 12 c 1. 1. 0.39240(2) 0.00803(16) 1
Ca2 Ca2+ 12 c 0.666667 0.333333 0.39059(2) 0.00956(17) 1
Ca3 Ca2+ 36 f 1.02896(7) 0.66393(6) 0.34764(2) 0.01415(11) 1
Na1 Na1+ 12 c 0.333333 0.666667 0.32317(3) 0.0198(4) 1
Na2 Na1+ 12 c 0.333333 0.666667 0.37516(3) 0.0116(3) 1
Na3 Na1+ 36 f 1.03187(14) 0.66751(11) 0.39487(2) 0.0123(2) 1
O1 O2- 36 f 0.5622(2) 0.4441(2) 0.41626(2) 0.0090(3) 1
O2 O2- 36 f 0.5353(2) 0.67184(19) 0.39449(2) 0.0087(3) 1
O3 O2- 36 f 0.7965(2) 0.6676(2) 0.39347(2) 0.0085(3) 1
O4 O2- 36 f 0.7976(2) 0.6642(2) 0.34910(3) 0.0132(4) 1
O5 O2- 36 f 0.5443(2) 0.4478(2) 0.37072(2) 0.0107(3) 1
O6 O2- 36 f 0.7786(2) 0.8938(2) 0.37047(2) 0.0104(3) 1
O7 O2- 36 f 0.5224(2) 0.6814(2) 0.35112(3) 0.0115(3) 1
O8 O2- 12 c 0.666667 0.333333 0.34250(13) 0.054(3) 0.5
loop_
_atom_site_aniso_label
_atom_site_aniso_type_symbol
_atom_site_aniso_U_11
_atom_site_aniso_U_22
_atom_site_aniso_U_33
_atom_site_aniso_U_12
_atom_site_aniso_U_13
_atom_site_aniso_U_23
Te1 Te6+ 0.00575(9) 0.00517(11) 0.00447(12) 0.00259(6) 0.00008(3) 0.00017(6)
Te2 Te6+ 0.00576(9) 0.00603(9) 0.00512(10) 0.00277(6) -0.00021(5) 0.00019(5)
Ca1 Ca2+ 0.0083(2) 0.0083(2) 0.0075(4) 0.00415(12) 0. 0.
Ca2 Ca2+ 0.0089(2) 0.0089(2) 0.0109(4) 0.00445(12) 0. 0.
Ca3 Ca2+ 0.0148(2) 0.0142(3) 0.0127(2) 0.0067(2) 0.0001(2) -0.00067(18)
Na1 Na1+ 0.0221(6) 0.0221(6) 0.0150(9) 0.0111(3) 0. 0.
Na2 Na1+ 0.0101(5) 0.0101(5) 0.0147(8) 0.0050(2) 0. 0.
Na3 Na1+ 0.0122(5) 0.0099(5) 0.0139(5) 0.0047(4) 0.0005(4) -0.0006(4)
O1 O2- 0.0106(8) 0.0057(8) 0.0100(7) 0.0035(6) -0.0001(6) 0.0001(6)
O2 O2- 0.0086(8) 0.0114(8) 0.0079(8) 0.0064(7) -0.0005(6) 0.0002(6)
O3 O2- 0.0089(8) 0.0133(8) 0.0052(7) 0.0069(6) 0.0002(6) 0.0002(6)
O4 O2- 0.0118(8) 0.0231(9) 0.0083(7) 0.0113(7) 0.0025(6) 0.0009(7)
O5 O2- 0.0119(8) 0.0065(8) 0.0113(7) 0.0027(6) -0.0020(7) 0.0001(6)
O6 O2- 0.0110(8) 0.0060(8) 0.0113(7) 0.0021(7) -0.0021(6) 0.0011(6)
O7 O2- 0.0105(8) 0.0144(9) 0.0110(8) 0.0072(7) -0.0037(6) -0.0018(7)
O8 O2- 0.068(5) 0.068(5) 0.026(4) 0.034(2) 0. 0.
#End of TTdata_10734-ICSD
#
