(C) 2022 by FIZ Karlsruhe - Leibniz Institute for Information Infrastructure.  All rights reserved.
data_81841-ICSD
_database_code_ICSD 81841
_audit_creation_date 1999-11-30
_chemical_name_common 'Heptasodium tetrairon hexakis(phosphate(V))'
_chemical_formula_structural 'Na7 Fe4 (P O4)6'
_chemical_formula_sum 'Fe4 Na7 O24 P6'
_chemical_name_structure_type Na3+xFe2(AsO4)3
_exptl_crystal_density_diffrn 3.43
_diffrn_ambient_temperature 296.
_citation_title

;
Na7 Fe4 (P O4)6: a mixed-valence iron phosphate containing a tetramer of
edge-sharing Fe O6 octahedra
;
loop_
_citation_id
_citation_journal_full
_citation_year
_citation_journal_volume
_citation_page_first
_citation_page_last
_citation_journal_id_ASTM
primary
'Journal of the Chemical Society, Dalton Transactions: Inorganic Chemistry ' 1996 1996 819 822 JCDTBI
loop_
_citation_author_citation_id
_citation_author_name
primary 'Lii, K.-H.'
_cell_length_a 13.392(2)
_cell_length_b 13.392(2)
_cell_length_c 17.8580(30)
_cell_angle_alpha 90.
_cell_angle_beta 90.
_cell_angle_gamma 120.
_cell_volume 2773.67
_cell_formula_units_Z 6
_space_group_name_H-M_alt 'R -3 c H'
_space_group_IT_number 167
loop_
_space_group_symop_id
_space_group_symop_operation_xyz
1 'x-y, -y, -z+1/2'
2 '-x, -x+y, -z+1/2'
3 'y, x, -z+1/2'
4 'x-y, x, -z'
5 'y, -x+y, -z'
6 '-x, -y, -z'
7 '-x+y, y, z+1/2'
8 'x, x-y, z+1/2'
9 '-y, -x, z+1/2'
10 '-x+y, -x, z'
11 '-y, x-y, z'
12 'x, y, z'
13 'x-y+2/3, -y+1/3, -z+5/6'
14 '-x+2/3, -x+y+1/3, -z+5/6'
15 'y+2/3, x+1/3, -z+5/6'
16 'x-y+2/3, x+1/3, -z+1/3'
17 'y+2/3, -x+y+1/3, -z+1/3'
18 '-x+2/3, -y+1/3, -z+1/3'
19 '-x+y+2/3, y+1/3, z+5/6'
20 'x+2/3, x-y+1/3, z+5/6'
21 '-y+2/3, -x+1/3, z+5/6'
22 '-x+y+2/3, -x+1/3, z+1/3'
23 '-y+2/3, x-y+1/3, z+1/3'
24 'x+2/3, y+1/3, z+1/3'
25 'x-y+1/3, -y+2/3, -z+1/6'
26 '-x+1/3, -x+y+2/3, -z+1/6'
27 'y+1/3, x+2/3, -z+1/6'
28 'x-y+1/3, x+2/3, -z+2/3'
29 'y+1/3, -x+y+2/3, -z+2/3'
30 '-x+1/3, -y+2/3, -z+2/3'
31 '-x+y+1/3, y+2/3, z+1/6'
32 'x+1/3, x-y+2/3, z+1/6'
33 '-y+1/3, -x+2/3, z+1/6'
34 '-x+y+1/3, -x+2/3, z+2/3'
35 '-y+1/3, x-y+2/3, z+2/3'
36 'x+1/3, y+2/3, z+2/3'
loop_
_atom_type_symbol
_atom_type_oxidation_number
Na1+ 1
Fe2+ 2
Fe3+ 3
P5+ 5
O2- -2
loop_
_atom_site_label
_atom_site_type_symbol
_atom_site_symmetry_multiplicity
_atom_site_Wyckoff_symbol
_atom_site_fract_x
_atom_site_fract_y
_atom_site_fract_z
_atom_site_B_iso_or_equiv
_atom_site_occupancy
Na1 Na1+ 36 f 0.6856(1) 0.1263(1) 0.27772(8) . 1.
Na2 Na1+ 6 b 0 0 0.5 . 1.
Fe1 Fe2+ 6 a 0.6667 0.3333 0.0833 . 1.
Fe2 Fe3+ 18 e 0.6667 0.11476(4) 0.0833 . 1.
P1 P5+ 36 f 0.81471(5) 0.01037(6) 0.35606(4) . 1.
O1 O2- 36 f 0.8514(1) -.0676(2) 0.3132(1) . 1.
O2 O2- 36 f 0.6828(2) -.0441(2) 0.3461(1) . 1.
O3 O2- 36 f 0.8517(2) 0.0159(2) 0.4362(1) . 1.
O4 O2- 36 f 0.8693(2) 0.1322(2) 0.3211(1) . 1.
#End of TTdata_81841-ICSD
#
