(C) 2022 by FIZ Karlsruhe - Leibniz Institute for Information Infrastructure.  All rights reserved.
data_75442-ICSD
_database_code_ICSD 75442
_audit_creation_date 1996-04-22
_audit_update_record 1999-01-19
_chemical_name_common 'Sodium tricobalt arsenate(V) bis(hydrogenarsenate(V))'
_chemical_formula_structural 'Na Co3 (As O4) (H As O4)2'
_chemical_formula_sum 'H2 As3 Co3 Na1 O12'
_chemical_name_structure_type Alluaudite-frame#Na1.5Mn2.5Al(PO4)3
_chemical_name_mineral "'Alluaudite-(Co, As)'"
_exptl_crystal_density_diffrn 4.41
_diffrn_ambient_temperature 296.
_citation_title

;
Hydrothermal synthesis and crystal structures of Na Co3 (P O4) (H PO4)2 and Na
Co3 (As O4) (H As O4)2: synthetic modifications of the mineral alluaudite
;
loop_
_citation_id
_citation_journal_full
_citation_year
_citation_journal_volume
_citation_page_first
_citation_page_last
_citation_journal_id_ASTM
primary 'Inorganic Chemistry' 1994 33 3028 3031 INOCAJ
loop_
_citation_author_citation_id
_citation_author_name
primary 'Lii, K.-H.'
primary 'Shih, P.-F.'
_cell_length_a 12.054(1)
_cell_length_b 12.378(1)
_cell_length_c 6.780(2)
_cell_angle_alpha 90.
_cell_angle_beta 113.03(1)
_cell_angle_gamma 90.
_cell_volume 930.98
_cell_formula_units_Z 4
_space_group_name_H-M_alt 'C 1 2/c 1'
_space_group_IT_number 15
loop_
_space_group_symop_id
_space_group_symop_operation_xyz
1 'x, -y, z+1/2'
2 '-x, -y, -z'
3 '-x, y, -z+1/2'
4 'x, y, z'
5 'x+1/2, -y+1/2, z+1/2'
6 '-x+1/2, -y+1/2, -z'
7 '-x+1/2, y+1/2, -z+1/2'
8 'x+1/2, y+1/2, z'
loop_
_atom_type_symbol
_atom_type_oxidation_number
Na1+ 1
Co2+ 2
As5+ 5
O2- -2
H1+ 1
loop_
_atom_site_label
_atom_site_type_symbol
_atom_site_symmetry_multiplicity
_atom_site_Wyckoff_symbol
_atom_site_fract_x
_atom_site_fract_y
_atom_site_fract_z
_atom_site_U_iso_or_equiv
_atom_site_occupancy
Na1 Na1+ 4 e 0 0.0040(2) 0.75 0.0305(9) 1.
Co1 Co2+ 4 e 0 0.28195(5) 0.25 0.0086(2) 1.
Co2 Co2+ 8 f 0.29406(4) 0.66026(4) 0.38280(7) 0.0074(3) 1.
As1 As5+ 4 e 0 0.68926(4) 0.25 0.0072(2) 1.
As2 As5+ 8 f 0.22017(3) 0.88489(3) 0.11316(5) 0.0064(1) 1.
O1 O2- 8 f 0.4662(2) 0.7365(2) 0.5269(3) 0.0090(7) 1.
O2 O2- 8 f 0.1149(2) 0.6049(2) 0.2696(4) 0.0108(8) 1.
O3 O2- 8 f 0.3471(2) 0.6775(2) 0.1255(4) 0.0090(7) 1.
O4 O2- 8 f 0.1307(2) 0.4070(2) 0.3350(4) 0.0112(8) 1.
O5 O2- 8 f 0.2126(2) 0.8116(2) 0.3152(4) 0.0084(7) 1.
O6 O2- 8 f 0.3513(2) 0.5029(2) 0.4022(4) 0.0092(8) 1.
H1 H1+ 8 f 0.8808 0.4884 0.1986 0.05(8) 1.
#End of TTdata_75442-ICSD
#
