(C) 2022 by FIZ Karlsruhe - Leibniz Institute for Information Infrastructure.  All rights reserved.
data_74062-ICSD
_database_code_ICSD 74062
_audit_creation_date 1995-01-10
_audit_update_record 2015-02-01
_chemical_name_common
'Distrontium vanadium(III) bis(phosphate(V)) dihydrogenphosphate(V)'
_chemical_formula_structural 'Sr2 V (P O4)2 (H2 P O4)'
_chemical_formula_sum 'H2 O12 P3 Sr2 V1'
_chemical_name_structure_type Sr2VH2(PO4)3
_exptl_crystal_density_diffrn 3.59
_diffrn_ambient_temperature 297.
_citation_title

;
Hydrothermal synthesis and crystal structures of Sr2 V (P O4)2 (H2 P O4) and
Sr2 Fe (P O4)2 (H2 P O4)
;
loop_
_citation_id
_citation_journal_full
_citation_year
_citation_journal_volume
_citation_page_first
_citation_page_last
_citation_journal_id_ASTM
primary
'Journal of the Chemical Society, Dalton Transactions: Inorganic Chemistry ' 1993 1993 1051 1054 JCDTBI
loop_
_citation_author_citation_id
_citation_author_name
primary 'Lii, K.-H.'
primary 'Lee, T.-C.'
primary 'Liu, S.-N.'
primary 'Wang, S.-L.'
_cell_length_a 11.0786(3)
_cell_length_b 11.742(3)
_cell_length_c 8.951(3)
_cell_angle_alpha 90.
_cell_angle_beta 125.35(2)
_cell_angle_gamma 90.
_cell_volume 949.72
_cell_formula_units_Z 4
_space_group_name_H-M_alt 'C 1 2/c 1'
_space_group_IT_number 15
loop_
_space_group_symop_id
_space_group_symop_operation_xyz
1 'x, -y, z+1/2'
2 '-x, -y, -z'
3 '-x, y, -z+1/2'
4 'x, y, z'
5 'x+1/2, -y+1/2, z+1/2'
6 '-x+1/2, -y+1/2, -z'
7 '-x+1/2, y+1/2, -z+1/2'
8 'x+1/2, y+1/2, z'
loop_
_atom_type_symbol
_atom_type_oxidation_number
Sr2+ 2
V3+ 3
P5+ 5
O2- -2
H1+ 1
loop_
_atom_site_label
_atom_site_type_symbol
_atom_site_symmetry_multiplicity
_atom_site_Wyckoff_symbol
_atom_site_fract_x
_atom_site_fract_y
_atom_site_fract_z
_atom_site_B_iso_or_equiv
_atom_site_occupancy
Sr1 Sr2+ 8 f 0.79989(8) 0.45940(6) 0.2059(1) . 1.
V1 V3+ 4 c 0.25 0.25 0 . 1.
P1 P5+ 4 e 0.5 0.4658(2) 0.25 . 1.
P2 P5+ 8 f 0.5609(2) 0.1911(2) 0.0512(3) . 1.
O1 O2- 8 f 0.3681(6) 0.3972(5) 0.0992(7) . 1.
O2 O2- 8 f 0.3901(6) 0.1904(5) -.0495(7) . 1.
O3 O2- 8 f 0.3628(6) 0.1699(5) 0.2432(7) . 1.
O4 O2- 8 f 0.5685(6) 0.5437(5) 0.1774(8) . 1.
O5 O2- 8 f 0.5936(6) 0.0910(5) -.0301(7) . 1.
O6 O2- 8 f 0.6098(6) 0.3059(5) 0.0240(8) . 1.
#End of TTdata_74062-ICSD
#
