(C) 2022 by FIZ Karlsruhe - Leibniz Institute for Information Infrastructure.  All rights reserved.
data_202680-ICSD
_database_code_ICSD 202680
_audit_creation_date 1989-12-04
_audit_update_record 1991-04-20
_chemical_name_common
'Tricesium hexamolybdenum(III,IV) dioxotetrakisdiphosphate bisphosphate'
_chemical_formula_structural 'Cs3 (Mo6 P10 O38)'
_chemical_formula_sum 'Cs3 Mo6 O38 P10'
_exptl_crystal_density_diffrn 3.75
_citation_title

;
A new mixed-valence molybdenum phosphate with a tunnel structure: Cs3 Mo6 P10
O38
;
loop_
_citation_id
_citation_journal_full
_citation_year
_citation_journal_volume
_citation_page_first
_citation_page_last
_citation_journal_id_ASTM
primary 'Journal of Solid State Chemistry' 1988 77 117 123 JSSCBI
loop_
_citation_author_citation_id
_citation_author_name
primary 'Lii, K.-H.'
primary 'Wang, C.-C.'
_cell_length_a 9.511(3)
_cell_length_b 14.232(4)
_cell_length_c 6.437(5)
_cell_angle_alpha 91.15(5)
_cell_angle_beta 105.92(5)
_cell_angle_gamma 90.04(2)
_cell_volume 837.71
_cell_formula_units_Z 1
_space_group_name_H-M_alt 'P -1'
_space_group_IT_number 2
loop_
_space_group_symop_id
_space_group_symop_operation_xyz
1 '-x, -y, -z'
2 'x, y, z'
loop_
_atom_type_symbol
_atom_type_oxidation_number
Cs1+ 1
Mo4+ 3.5
Mo4+ 4
P5+ 5
O2- -2
loop_
_atom_site_label
_atom_site_type_symbol
_atom_site_symmetry_multiplicity
_atom_site_Wyckoff_symbol
_atom_site_fract_x
_atom_site_fract_y
_atom_site_fract_z
_atom_site_U_iso_or_equiv
_atom_site_occupancy
Cs1 Cs1+ 1 a 0 0 0 . 1.
Cs2 Cs1+ 2 i -.3736(2) -.2834(1) -.0419(3) . 1.
Mo1 Mo4+ 2 i -.0402(2) -.2495(1) -.3804(3) . 1.
Mo2 Mo4+ 2 i 0.3696(2) -.1364(1) -.7129(3) . 1.
Mo3 Mo4+ 2 i 0.3368(2) -.3868(1) -.7357(3) . 1.
P1 P5+ 2 i 0.0470(6) -.2526(4) -.842(1) . 1.
P2 P5+ 2 i 0.2826(6) -.1130(4) -.259(1) . 1.
P3 P5+ 2 i 0.2802(6) 0.0601(4) -.490(1) . 1.
P4 P5+ 2 i 0.2956(6) -.5752(4) -.494(1) . 1.
P5 P5+ 2 i 0.2358(6) -.4108(4) -.286(1) . 1.
O1 O2- 2 i -.155(2) -.123(1) -.423(2) 0.010(3) 1.
O2 O2- 2 i -.234(2) -.327(1) -.464(3) 0.014(4) 1.
O3 O2- 2 i -.055(2) -.242(1) -.075(3) 0.015(4) 1.
O4 O2- 2 i -.055(2) -.250(1) -.695(2) 0.011(3) 1.
O5 O2- 2 i 0.148(2) -.171(1) -.296(3) 0.015(4) 1.
O6 O2- 2 i 0.089(2) -.367(1) -.324(2) 0.011(3) 1.
O7 O2- 2 i 0.150(2) -.166(1) -.788(3) 0.015(4) 1.
O8 O2- 2 i 0.385(2) -.145(1) -.392(3) 0.013(4) 1.
O9 O2- 2 i 0.314(2) 0.001(1) -.673(2) 0.007(3) 1.
O10 O2- 2 i 0.588(2) -.111(1) -.654(3) 0.019(4) 1.
O11 O2- 2 i 0.392(2) -.265(1) -.739(2) 0.009(3) 1.
O12 O2- 2 i 0.362(2) -.102(1) -.025(2) 0.009(3) 1.
O13 O2- 2 i 0.226(2) -.011(1) -.335(2) 0.011(3) 1.
O14 O2- 2 i 0.127(2) -.344(1) -.826(2) 0.009(3) 1.
O15 O2- 2 i 0.335(2) -.372(1) -.419(2) 0.012(3) 1.
O16 O2- 2 i 0.282(2) -.524(1) -.703(2) 0.009(3) 1.
O17 O2- 2 i 0.552(2) -.424(1) -.658(2) 0.005(3) 1.
O18 O2- 2 i 0.325(2) -.412(1) -.054(2) 0.011(3) 1.
O19 O2- 2 i 0.202(2) -.521(1) -.360(2) 0.009(3) 1.
loop_
_atom_site_aniso_label
_atom_site_aniso_type_symbol
_atom_site_aniso_U_11
_atom_site_aniso_U_22
_atom_site_aniso_U_33
_atom_site_aniso_U_12
_atom_site_aniso_U_13
_atom_site_aniso_U_23
Cs1 Cs1+ 0.025(1) 0.016(1) 0.028(1) 0.010(1) -.013(1) -.005(1)
Cs2 Cs1+ 0.014(1) 0.050(1) 0.030(1) -.0023(8) 0.0101(8) -.0066(9)
Mo1 Mo4+ 0.002(1) 0.006(1) 0.007(1) -.0013(7) 0.0021(8) -.0021(8)
Mo2 Mo4+ 0.003(1) 0.005(1) 0.008(1) -.0014(7) 0.0034(8) -.0033(8)
Mo3 Mo4+ 0.003(1) 0.004(1) 0.009(1) 0.0006(7) 0.0018(8) -.0021(8)
P1 P5+ 0.004(3) 0.005(3) 0.009(3) 0.001(2) 0.000(2) 0.001(2)
P2 P5+ 0.008(3) 0.004(3) 0.004(3) -.002(2) 0.000(2) -.001(2)
P3 P5+ 0.006(3) 0.007(3) 0.007(3) 0.001(2) 0.004(2) -.004(2)
P4 P5+ 0.004(3) 0.006(3) 0.009(3) -.002(2) 0.001(2) -.002(2)
P5 P5+ 0.006(3) 0.004(3) 0.012(3) 0.002(2) 0.004(2) -.004(2)
#End of TTdata_202680-ICSD
#
