(C) 2022 by FIZ Karlsruhe - Leibniz Institute for Information Infrastructure.  All rights reserved.
data_80551-ICSD
_database_code_ICSD 80551
_audit_creation_date 1997-05-13
_chemical_name_common 'Lithium vanadium(III) diphosphate'
_chemical_formula_structural 'Li V (P2 O7)'
_chemical_formula_sum 'Li1 O7 P2 V1'
_chemical_name_structure_type LiFe(P2O7)
_exptl_crystal_density_diffrn 3.01
_citation_title 'The crystal structure of Li V P2 O7'
loop_
_citation_id
_citation_journal_full
_citation_year
_citation_journal_volume
_citation_page_first
_citation_page_last
_citation_journal_id_ASTM
primary 'Journal of Solid State Chemistry' 1990 86 143 148 JSSCBI
loop_
_citation_author_citation_id
_citation_author_name
primary 'Lii, K.-H.'
primary 'Wang, Y.-P.'
primary 'Chen, Y.B.'
primary 'Wang, S.-L.'
_cell_length_a 4.8048(6)
_cell_length_b 8.113(1)
_cell_length_c 6.9393(9)
_cell_angle_alpha 90.
_cell_angle_beta 109.01(1)
_cell_angle_gamma 90.
_cell_volume 255.75
_cell_formula_units_Z 2
_space_group_name_H-M_alt 'P 1 21 1'
_space_group_IT_number 4
loop_
_space_group_symop_id
_space_group_symop_operation_xyz
1 '-x, y+1/2, -z'
2 'x, y, z'
loop_
_atom_type_symbol
_atom_type_oxidation_number
V3+ 3
P5+ 5
O2- -2
Li1+ 1
loop_
_atom_site_label
_atom_site_type_symbol
_atom_site_symmetry_multiplicity
_atom_site_Wyckoff_symbol
_atom_site_fract_x
_atom_site_fract_y
_atom_site_fract_z
_atom_site_B_iso_or_equiv
_atom_site_occupancy
V1 V3+ 2 a 0.21539(14) 0.439 0.72831(10) . 1.
P1 P5+ 2 a 0.21012(22) 0.72275(15) 0.08485(16) . 1.
P2 P5+ 2 a 0.40041(22) 0.11997(14) 0.52131(15) . 1.
O1 O2- 2 a 0.8143(6) 0.4773(4) 0.5189(4) . 1.
O2 O2- 2 a 0.3959(6) 0.6172(4) 0.6066(4) . 1.
O3 O2- 2 a 0.0524(6) 0.2632(4) 0.8512(5) . 1.
O4 O2- 2 a 0.2489(6) 0.2846(4) 0.5075(4) . 1.
O5 O2- 2 a 0.1302(6) 0.6337(4) 0.8835(4) . 1.
O6 O2- 2 a 0.6031(6) 0.3727(4) 0.9179(5) . 1.
O7 O2- 2 a 0.4024(6) 0.5913(4) 0.2458(4) . 1.
Li1 Li1+ 2 a 0.1959(21) 0.8050(13) 0.6816(14) . 1.
loop_
_atom_site_aniso_label
_atom_site_aniso_type_symbol
_atom_site_aniso_U_11
_atom_site_aniso_U_22
_atom_site_aniso_U_33
_atom_site_aniso_U_12
_atom_site_aniso_U_13
_atom_site_aniso_U_23
V1 V3+ 0.0059(3) 0.0040(3) 0.0050(3) 0.0002(3) 0.0028(2) -.0003(3)
P1 P5+ 0.0059(4) 0.0057(5) 0.0045(4) 0.0005(3) 0.0017(3) -.0006(3)
P2 P5+ 0.0068(5) 0.0046(5) 0.0046(4) -.0001(4) 0.0026(3) -.0015(4)
O1 O2- 0.0087(13) 0.0085(16) 0.0075(13) 0.0012(11) 0.0037(11) -.0004(11)
O2 O2- 0.0098(13) 0.0081(14) 0.0088(13) 0.0003(11) 0.0073(11) -.0018(12)
O3 O2- 0.0100(13) 0.0098(15) 0.0152(15) 0.0013(12) 0.0065(12) 0.0062(12)
O4 O2- 0.0065(12) 0.0075(14) 0.0089(13) 0.002(1) 0.0039(10) -.0023(13)
O5 O2- 0.0133(14) 0.0100(16) 0.0053(13) -.0005(12) 0.0035(11) -.0037(12)
O6 O2- 0.0090(13) 0.0082(14) 0.0120(14) 0.0015(11) 0.0009(11) -.0022(12)
O7 O2- 0.0127(13) 0.0069(14) 0.0042(12) 0.0008(12) 0.0007(10) 0.0019(11)
Li1 Li1+ 0.028(4) 0.026(5) 0.020(4) 0.011(4) 0.011(4) 0.007(4)
#End of TTdata_80551-ICSD
#
