(C) 2022 by FIZ Karlsruhe - Leibniz Institute for Information Infrastructure.  All rights reserved.
data_83625-ICSD
_database_code_ICSD 83625
_audit_creation_date 1998-06-26
_audit_update_record 2013-08-01
_chemical_name_common 'Dipotassium diiron(III) oxide bis(arsenate(V))'
_chemical_formula_structural 'K2 Fe2 O (As O4)2'
_chemical_formula_sum 'As2 Fe2 K2 O9'
_chemical_name_structure_type K2Fe2O(AsO4)2
_exptl_crystal_density_diffrn 3.65
_diffrn_ambient_temperature 296.
_citation_title

;
Layered iron(III) arsenates; synthesis and characterization of A2 Fe2 O (As
O4)2 (A = K, Rb)
;
loop_
_citation_id
_citation_journal_full
_citation_year
_citation_journal_volume
_citation_page_first
_citation_page_last
_citation_journal_id_ASTM
primary 'Inorganic Chemistry' 1997 36 3410 3413 INOCAJ
loop_
_citation_author_citation_id
_citation_author_name
primary 'Chang, R.-S.'
primary 'Wang, S.-L.'
primary 'Lii, K.-H.'
_cell_length_a 8.5219(3)
_cell_length_b 5.7616(2)
_cell_length_c 17.94519(60)
_cell_angle_alpha 90.
_cell_angle_beta 90.
_cell_angle_gamma 90.
_cell_volume 881.1
_cell_formula_units_Z 4
_space_group_name_H-M_alt 'P n m a'
_space_group_IT_number 62
loop_
_space_group_symop_id
_space_group_symop_operation_xyz
1 'x+1/2, y, -z+1/2'
2 'x, -y+1/2, z'
3 '-x+1/2, y+1/2, z+1/2'
4 '-x, -y, -z'
5 '-x+1/2, -y, z+1/2'
6 '-x, y+1/2, -z'
7 'x+1/2, -y+1/2, -z+1/2'
8 'x, y, z'
loop_
_atom_type_symbol
_atom_type_oxidation_number
K1+ 1
Fe3+ 3
As5+ 5
O2- -2
loop_
_atom_site_label
_atom_site_type_symbol
_atom_site_symmetry_multiplicity
_atom_site_Wyckoff_symbol
_atom_site_fract_x
_atom_site_fract_y
_atom_site_fract_z
_atom_site_U_iso_or_equiv
_atom_site_occupancy
K1 K1+ 4 c -.0432(2) 0.75 0.2662(1) 0.0299(6) 1.
K2 K1+ 4 c 0.6001(2) 0.25 0.36697(9) 0.0192(5) 1.
Fe1 Fe3+ 4 c 0.7147(1) 0.25 0.56688(5) 0.0072(3) 1.
Fe2 Fe3+ 4 b 0 0 0.5 0.0064(3) 1.
As1 As5+ 4 c 0.32439(7) 0.25 0.55910(4) 0.0062(3) 1.
As2 As5+ 4 c 0.18272(7) 0.25 0.35236(4) 0.0073(3) 1.
O1 O2- 4 c 0.5072(5) 0.25 0.5244(3) 0.013(1) 1.
O2 O2- 4 c 0.3197(5) 0.25 0.6507(3) 0.018(2) 1.
O3 O2- 8 d 0.2333(4) 0.0090(5) 0.5242(2) 0.0099(9) 1.
O4 O2- 4 c 0.0866(6) 0.25 0.2735(3) 0.024(2) 1.
O5 O2- 4 c 0.0444(5) 0.25 0.4225(2) 0.006(1) 1.
O6 O2- 8 d 0.3006(4) 0.0126(5) 0.3618(2) 0.0117(9) 1.
O7 O2- 4 c -.0585(5) 0.25 0.5653(2) 0.005(1) 1.
#End of TTdata_83625-ICSD
#
