(C) 2022 by FIZ Karlsruhe - Leibniz Institute for Information Infrastructure.  All rights reserved.
data_72635-ICSD
_database_code_ICSD 72635
_audit_creation_date 1994-01-19
_audit_update_record 2010-02-01
_chemical_name_common 'Rubidium oxovanadium(IV) phosphate(V)'
_chemical_formula_structural 'Rb (V O) (P O4)'
_chemical_formula_sum 'O5 P1 Rb1 V1'
_chemical_name_structure_type RbVOPO4
_exptl_crystal_density_diffrn 3.29
_diffrn_ambient_temperature 297.
_citation_title

;
Rb V O P O4 and Cs V O P O4, two vanadyl(IV) orthophosphates with an
intersecting tunnel structure and discrete V O5 pyramids
;
loop_
_citation_id
_citation_journal_full
_citation_year
_citation_journal_volume
_citation_page_first
_citation_page_last
_citation_journal_id_ASTM
primary 'Journal of Solid State Chemistry' 1993 103 38 44 JSSCBI
loop_
_citation_author_citation_id
_citation_author_name
primary 'Lii, K.-H.'
primary 'Liu, W.-C.'
_cell_length_a 7.8669(9)
_cell_length_b 7.5848(8)
_cell_length_c 8.3771(10)
_cell_angle_alpha 90.
_cell_angle_beta 90.
_cell_angle_gamma 90.
_cell_volume 499.85
_cell_formula_units_Z 4
_space_group_name_H-M_alt 'P 21 21 21'
_space_group_IT_number 19
loop_
_space_group_symop_id
_space_group_symop_operation_xyz
1 '-x, y+1/2, -z+1/2'
2 'x+1/2, -y+1/2, -z'
3 '-x+1/2, -y, z+1/2'
4 'x, y, z'
loop_
_atom_type_symbol
_atom_type_oxidation_number
Rb1+ 1
V4+ 4
P5+ 5
O2- -2
loop_
_atom_site_label
_atom_site_type_symbol
_atom_site_symmetry_multiplicity
_atom_site_Wyckoff_symbol
_atom_site_fract_x
_atom_site_fract_y
_atom_site_fract_z
_atom_site_B_iso_or_equiv
_atom_site_occupancy
Rb1 Rb1+ 4 a 0.70553(12) 0.12829(12) 0.97917(11) 1.41(3) 1.
V1 V4+ 4 a 0.71277(20) 0.63765(21) 0.87420(16) 0.98(6) 1.
P1 P5+ 4 a 0.5686(3) 0.6245(4) 0.1552(3) 0.87(8) 1.
O1 O2- 4 a 0.5825(8) 0.4806(7) 0.0252(8) 1.1(2) 1.
O2 O2- 4 a 0.5812(8) 0.6801(9) 0.7368(8) 1.7(3) 1.
O3 O2- 4 a 0.8904(9) 0.8129(8) 0.8153(8) 1.3(3) 1.
O4 O2- 4 a 0.6766(9) 0.7711(7) 0.0743(7) 1.2(2) 1.
O5 O2- 4 a 0.8561(9) 0.4363(8) 0.8153(8) 1.2(2) 1.
#End of TTdata_72635-ICSD
#
