(C) 2022 by FIZ Karlsruhe - Leibniz Institute for Information Infrastructure.  All rights reserved.
data_421530-ICSD
_database_code_ICSD 421530
_audit_creation_date 2011-02-01
_chemical_name_common 'Sodium uranyl(IV) uranyl(V) uranyl(VI) silicate'
_chemical_formula_structural 'Na7 (U O2) (U O)2 (U O2)2 Si4 O16'
_chemical_formula_sum 'Na7 O24 Si4 U5'
_exptl_crystal_density_diffrn 5.52
_diffrn_ambient_temperature 296.
_citation_title

;
[Na7 U(IV) O2 (U(V)O)2 (U(V/VI) O2)2 Si4 O16]: A mixed-valence uranium
silicate
;
loop_
_citation_id
_citation_journal_full
_citation_year
_citation_journal_volume
_citation_page_first
_citation_page_last
_citation_journal_id_ASTM
primary 'Angewandte Chemie, International Edition' 2010 49 4254 4256 ACIEF5
loop_
_citation_author_citation_id
_citation_author_name
primary 'Lee Cheng shiuan'
primary 'Lin Chiahui'
primary 'Wang Sue Lein'
primary 'Lii Kwanghwa'
_cell_length_a 6.79310(10)
_cell_length_b 6.96850(10)
_cell_length_c 11.9157(2)
_cell_angle_alpha 95.4710(10)
_cell_angle_beta 98.3710(10)
_cell_angle_gamma 90.6880(10)
_cell_volume 555.32
_cell_formula_units_Z 1
_space_group_name_H-M_alt 'P -1'
_space_group_IT_number 2
loop_
_space_group_symop_id
_space_group_symop_operation_xyz
1 '-x, -y, -z'
2 'x, y, z'
loop_
_atom_type_symbol
_atom_type_oxidation_number
Na1+ 1
U4+ 4
U5+ 5
U6+ 5.5
Si4+ 4
O2- -2
loop_
_atom_site_label
_atom_site_type_symbol
_atom_site_symmetry_multiplicity
_atom_site_Wyckoff_symbol
_atom_site_fract_x
_atom_site_fract_y
_atom_site_fract_z
_atom_site_U_iso_or_equiv
_atom_site_occupancy
Na1 Na1+ 1 d -0.5 1. 1. 0.0324(11) 1
Na2 Na1+ 2 i 0.7521(4) 0.4902(5) 1.0086(3) 0.0288(7) 1
Na3 Na1+ 2 i -0.2347(6) 1.0136(4) 0.5535(3) 0.0370(8) 1
Na4 Na1+ 2 i -0.2397(5) 0.5102(4) 0.5583(3) 0.0305(7) 1
U1 U4+ 1 a 0. 1. 1. 0.01066(8) 1
U2 U5+ 2 i 0.17454(3) 0.78547(3) 0.719616(17) 0.00631(7) 1
U3 U6+ 2 i 0.43966(3) 0.29030(3) 0.726981(17) 0.00654(7) 1
Si1 Si4+ 2 i 0.6487(2) 0.8031(2) 0.76393(14) 0.0079(3) 1
Si2 Si4+ 2 i -0.0127(2) 0.2845(2) 0.76944(14) 0.0075(3) 1
O1 O2- 2 i -0.1667(6) 0.7846(6) 0.6926(4) 0.0114(8) 1
O2 O2- 2 i 0.4910(6) -0.0349(6) 0.7196(4) 0.0139(9) 1
O3 O2- 2 i 0.4981(6) 0.6159(5) 0.7389(4) 0.0130(8) 1
O4 O2- 2 i 0.2691(7) 1.1496(7) 1.1015(4) 0.0186(9) 1
O5 O2- 2 i 0.0169(7) 0.7307(6) 1.0956(4) 0.0163(9) 1
O6 O2- 2 i 0.1272(6) 0.4679(6) 0.7516(4) 0.0133(8) 1
O7 O2- 2 i 0.7666(6) 0.2889(6) 0.7003(4) 0.0108(8) 1
O8 O2- 2 i 0.1171(6) 1.1103(6) 0.7166(4) 0.0130(8) 1
O9 O2- 2 i 0.2010(6) 0.8408(6) 0.8899(4) 0.0119(8) 1
O10 O2- 2 i 0.1408(7) 0.7430(6) 0.5583(4) 0.0156(9) 1
O11 O2- 2 i 0.4876(7) 0.3063(6) 0.8860(4) 0.0162(9) 1
O12 O2- 2 i 0.3904(7) 0.2746(6) 0.5679(4) 0.0173(9) 1
loop_
_atom_site_aniso_label
_atom_site_aniso_type_symbol
_atom_site_aniso_U_11
_atom_site_aniso_U_22
_atom_site_aniso_U_33
_atom_site_aniso_U_12
_atom_site_aniso_U_13
_atom_site_aniso_U_23
Na1 Na1+ 0.0141(19) 0.052(3) 0.027(2) 0.0010(18) 0.0037(17) -0.020(2)
Na2 Na1+ 0.0152(13) 0.0342(16) 0.0344(18) -0.0045(12) 0.0039(12) -0.0103(13)
Na3 Na1+ 0.070(2) 0.0218(14) 0.0179(15) -0.0123(15) 0.0004(15) 0.0055(12)
Na4 Na1+ 0.056(2) 0.0178(13) 0.0158(14) 0.0123(13) 0.0015(13) -0.0001(11)
U1 U4+ 0.00958(15) 0.01149(14) 0.01097(16) 0.00025(10) 0.00237(11) 0.00015(11)
U2 U5+ 0.00553(11) 0.00550(10) 0.00803(11) 0.00023(7) 0.00159(7) 0.00049(7)
U3 U6+ 0.00547(11) 0.00534(10) 0.00903(12) 0.00027(7) 0.00162(7) 0.00099(7)
Si1 Si4+ 0.0046(6) 0.0068(6) 0.0123(8) -0.0005(5) 0.0021(6) 0.0004(5)
Si2 Si4+ 0.0054(7) 0.0065(6) 0.0114(8) 0.0001(5) 0.0027(6) 0.0017(5)
O1 O2- 0.0061(18) 0.0130(18) 0.016(2) 0.0008(14) 0.0043(16) 0.0024(15)
O2 O2- 0.0042(18) 0.0065(17) 0.031(3) 0.0013(14) 0.0020(17) 0.0014(16)
O3 O2- 0.0078(19) 0.0069(17) 0.024(2) -0.0005(14) 0.0019(17) 0.0024(16)
O4 O2- 0.0079(19) 0.030(2) 0.016(2) 0.0002(17) -0.0001(17) -0.0050(19)
O5 O2- 0.013(2) 0.023(2) 0.014(2) -0.0003(17) 0.0029(17) 0.0035(18)
O6 O2- 0.0095(19) 0.0081(18) 0.024(2) -0.0016(14) 0.0085(17) 0.0023(16)
O7 O2- 0.0065(18) 0.0132(18) 0.013(2) 0.0021(14) 0.0003(15) 0.0019(15)
O8 O2- 0.0073(19) 0.0061(17) 0.026(2) 0.0031(14) 0.0043(17) 0.0017(16)
O9 O2- 0.0088(19) 0.016(2) 0.011(2) 0.0014(15) 0.0009(16) 0.0014(16)
O10 O2- 0.019(2) 0.018(2) 0.010(2) 0.0012(17) 0.0032(17) 0.0032(16)
O11 O2- 0.017(2) 0.017(2) 0.015(2) -0.0005(17) 0.0022(18) 0.0032(17)
O12 O2- 0.020(2) 0.017(2) 0.014(2) -0.0004(17) -0.0022(18) 0.0044(17)
#End of TTdata_421530-ICSD
#
