(C) 2022 by FIZ Karlsruhe - Leibniz Institute for Information Infrastructure.  All rights reserved.
data_51333-ICSD
_database_code_ICSD 51333
_audit_creation_date 2002-10-01
_audit_update_record 2005-10-01
_chemical_name_common 'Dilithium iron zirconium tris(phosphate(V))'
_chemical_formula_structural 'Li2 Fe Zr (P O4)3'
_chemical_formula_sum 'Fe1 Li2 O12 P3 Zr1'
_chemical_name_structure_type Li2TiFe(PO4)3
_exptl_crystal_density_diffrn 3.17
_citation_title

;
A mixed alpha/beta superstructure in NASICON ionic conductors: neutron
diffraction study of Li2 Fe Ti (P O4)3 and Li2 Fe Zr (P O4)3
;
loop_
_citation_id
_citation_journal_full
_citation_year
_citation_journal_volume
_citation_page_first
_citation_page_last
_citation_journal_id_ASTM
primary 'Journal of Solid State Chemistry' 2001 156 305 312 JSSCBI
loop_
_citation_author_citation_id
_citation_author_name
primary 'Catti, M.'
_cell_length_a 8.70559(8)
_cell_length_b 8.78572(9)
_cell_length_c 12.2202(1)
_cell_angle_alpha 90.
_cell_angle_beta 90.
_cell_angle_gamma 90.
_cell_volume 934.66
_cell_formula_units_Z 4
_space_group_name_H-M_alt 'P b n a'
_space_group_IT_number 60
loop_
_space_group_symop_id
_space_group_symop_operation_xyz
1 '-x, y+1/2, z'
2 'x+1/2, y, -z+1/2'
3 'x+1/2, -y+1/2, z+1/2'
4 '-x, -y, -z'
5 'x, -y+1/2, -z'
6 '-x+1/2, -y, z+1/2'
7 '-x+1/2, y+1/2, -z+1/2'
8 'x, y, z'
loop_
_atom_type_symbol
_atom_type_oxidation_number
Li1+ 1
Fe3+ 3
Zr4+ 4
P5+ 5
O2- -2
loop_
_atom_site_label
_atom_site_type_symbol
_atom_site_symmetry_multiplicity
_atom_site_Wyckoff_symbol
_atom_site_fract_x
_atom_site_fract_y
_atom_site_fract_z
_atom_site_U_iso_or_equiv
_atom_site_occupancy
Li1 Li1+ 8 d 0.2814(18) 0.2214(17) 0.3233(13) 0.070(4) 1.
Fe1 Fe3+ 8 d 0.7518(3) 0.4608(2) 0.6119(2) 0.0086(5) 0.5
Zr1 Zr4+ 8 d 0.7518(3) 0.4608(2) 0.6119(2) 0.0086(5) 0.5
P1 P5+ 8 d 0.6057(4) 0.1061(4) 0.6473(3) 0.0064(8) 1.
P2 P5+ 4 c 0.0418(6) 0.25 0.5 0.007(1) 1.
O1 O2- 8 d 0.6581(4) 0.4318(3) 0.4675(3) 0.016(1) 1.
O2 O2- 8 d 0.6611(4) 0.2646(3) 0.6797(2) 0.012(1) 1.
O3 O2- 8 d 0.9438(3) 0.3579(4) 0.5682(3) 0.018(1) 1.
O4 O2- 8 d 0.5688(4) 0.6030(3) 0.6586(3) 0.016(1) 1.
O5 O2- 8 d 0.8234(4) 0.4873(3) 0.7755(3) 0.013(1) 1.
O6 O2- 8 d 0.8551(3) 0.6588(3) 0.5771(3) 0.013(1) 1.
#End of TTdata_51333-ICSD
