(C) 2022 by FIZ Karlsruhe - Leibniz Institute for Information Infrastructure.  All rights reserved.
data_190655-ICSD
_database_code_ICSD 190655
_audit_creation_date 2014-08-01
_chemical_name_common 'Lithium zirconium arsenate phosphate (1/2/1.5/1.5)'
_chemical_formula_structural 'Li Zr2 ((As O4)1.5 (P O4)1.5)'
_chemical_formula_sum 'As1.5 Li1 O12 P1.5 Zr2'
_chemical_name_structure_type LiV2(PO4)3
_exptl_crystal_density_diffrn 3.52
_citation_title
'Synthesis and properties of Li Zr2 (As O4)3 and Li Zr2 (As O4)x (P O4)3-x'
loop_
_citation_id
_citation_journal_full
_citation_year
_citation_journal_volume
_citation_page_first
_citation_page_last
_citation_journal_id_ASTM
primary 'Inorganic Materials' 2014 50 263 272 INOMAF
loop_
_citation_author_citation_id
_citation_author_name
primary "Pet'kov, V.I."
primary 'Sukhanov, M.V.'
primary 'Shipilov, A.S.'
primary 'Kurazhkovskaya, V.S.'
primary 'Borovikova, E.Yu.'
primary 'Pinus, I.Yu.'
primary 'Yaroslavtsev, A.B.'
_cell_length_a 8.9619(5)
_cell_length_b 9.0560(5)
_cell_length_c 12.5723(6)
_cell_angle_alpha 90.
_cell_angle_beta 90.734(3)
_cell_angle_gamma 90.
_cell_volume 1020.27
_cell_formula_units_Z 4
_space_group_name_H-M_alt 'P 1 21/n 1'
_space_group_IT_number 14
loop_
_space_group_symop_id
_space_group_symop_operation_xyz
1 '-x+1/2, y+1/2, -z+1/2'
2 '-x, -y, -z'
3 'x+1/2, -y+1/2, z+1/2'
4 'x, y, z'
loop_
_atom_type_symbol
_atom_type_oxidation_number
Li1+ 1
Zr4+ 4
As5+ 5
P5+ 5
As5+ 5
P5+ 5
As5+ 5
P5+ 5
O2- -2
loop_
_atom_site_label
_atom_site_type_symbol
_atom_site_symmetry_multiplicity
_atom_site_Wyckoff_symbol
_atom_site_fract_x
_atom_site_fract_y
_atom_site_fract_z
_atom_site_B_iso_or_equiv
_atom_site_occupancy
Li1 Li1+ 4 e 0.316(8) 0.288(8) 0.386(7) 1.9(6) 1.
Zr1 Zr4+ 4 e 0.7573(5) 0.4584(4) 0.6108(3) 1.0(1) 1.
Zr2 Zr4+ 4 e 0.7561(6) 0.0252(4) 0.3818(3) 1.6(1) 1.
As1 As5+ 4 e 0.6035(8) 0.1101(8) 0.6421(5) 0.7(1) 0.5
P1 P5+ 4 e 0.6035(8) 0.1101(8) 0.6421(5) 0.7(1) 0.5
As2 As5+ 4 e 0.5995(9) 0.3774(8) 0.3556(6) 0.8(2) 0.5
P2 P5+ 4 e 0.5995(9) 0.3774(8) 0.3556(6) 0.8(2) 0.5
As3 As5+ 4 e 0.0373(9) 0.253(1) 0.4924(7) 2.9(2) 0.5
P3 P5+ 4 e 0.0373(9) 0.253(1) 0.4924(7) 2.9(2) 0.5
O1 O2- 4 e 0.675(3) 0.435(2) 0.453(2) 0.4(2) 1.
O2 O2- 4 e 0.687(2) 0.249(2) 0.687(2) 0.4(2) 1.
O3 O2- 4 e 0.939(2) 0.385(2) 0.567(2) 0.4(1) 1.
O4 O2- 4 e 0.559(3) 0.622(3) 0.684(2) 0.4(2) 1.
O5 O2- 4 e 0.835(3) 0.478(2) 0.793(2) 0.4(2) 1.
O6 O2- 4 e 0.853(3) 0.654(2) 0.580(2) 0.4(1) 1.
O7 O2- 4 e 0.698(2) 0.019(2) 0.532(2) 0.4(2) 1.
O8 O2- 4 e 0.684(2) 0.211(2) 0.308(2) 0.4(2) 1.
O9 O2- 4 e 0.918(2) 0.189(2) 0.411(2) 0.4(1) 1.
O10 O2- 4 e 0.558(3) 0.912(3) 0.359(2) 0.4(2) 1.
O11 O2- 4 e 0.777(2) -0.056(2) 0.221(2) 0.4(2) 1.
O12 O2- 4 e 0.884(3) 0.852(2) 0.421(2) 0.4(2) 1.
#End of TTdata_190655-ICSD
#
