(C) 2022 by FIZ Karlsruhe - Leibniz Institute for Information Infrastructure.  All rights reserved.
data_188749-ICSD
_database_code_ICSD 188749
_audit_creation_date 2014-02-01
_chemical_name_common 'Lithium zirconium vanadate phosphate (1/2/0.8/2.2)'
_chemical_formula_structural 'Li Zr2 (V O4)0.8 (P O4)2.2'
_chemical_formula_sum 'Li1 O12 P2.2 V0.8 Zr2'
_chemical_name_structure_type LiV2(PO4)3
_exptl_crystal_density_diffrn 3.3
_citation_title
'Synthesis and structure of alkali metal zirconium vanadate phosphates'
loop_
_citation_id
_citation_journal_full
_citation_year
_citation_journal_volume
_citation_page_first
_citation_page_last
_citation_journal_id_ASTM
primary 'Russian Journal of Inorganic Chemistry' 2013 58 1015 1021 RJICAQ
loop_
_citation_author_citation_id
_citation_author_name
primary "Pet'kov, V.I."
primary 'Sukhanov, M.V.'
primary 'Shipilov, A.S.'
primary 'Kurazhkovskaya, V.S.'
primary 'Borovikova, E.Yu.'
primary 'Sakharov, N.V.'
primary 'Ermilova, M.M.'
primary 'Orekhova, N.V.'
_cell_length_a 8.8447(6)
_cell_length_b 8.9876(7)
_cell_length_c 12.3976(7)
_cell_angle_alpha 90.
_cell_angle_beta 90.821(4)
_cell_angle_gamma 90.
_cell_volume 985.42
_cell_formula_units_Z 4
_space_group_name_H-M_alt 'P 1 21/n 1'
_space_group_IT_number 14
loop_
_space_group_symop_id
_space_group_symop_operation_xyz
1 '-x+1/2, y+1/2, -z+1/2'
2 '-x, -y, -z'
3 'x+1/2, -y+1/2, z+1/2'
4 'x, y, z'
loop_
_atom_type_symbol
_atom_type_oxidation_number
Li1+ 1
Zr4+ 4
P5+ 5
V5+ 5
P5+ 5
V5+ 5
P5+ 5
V5+ 5
O2- -2
loop_
_atom_site_label
_atom_site_type_symbol
_atom_site_symmetry_multiplicity
_atom_site_Wyckoff_symbol
_atom_site_fract_x
_atom_site_fract_y
_atom_site_fract_z
_atom_site_B_iso_or_equiv
_atom_site_occupancy
Li1 Li1+ 4 e 0.2904(1) 0.2186(0) 0.3279(8) 3.2(1) 1.
Zr1 Zr4+ 4 e 0.7578(9) 0.4556(8) 0.6178(7) 3.2(1) 1.
Zr2 Zr4+ 4 e 0.7654(9) 0.0230(8) 0.3823(7) 3.2(1) 1.
P1 P5+ 4 e 0.605(3) 0.106(2) 0.619(2) 3.2(1) 0.733
V1 V5+ 4 e 0.605(3) 0.106(2) 0.619(2) 3.2(1) 0.267
P2 P5+ 4 e 0.615(2) 0.372(2) 0.358(2) 3.2(1) 0.733
V2 V5+ 4 e 0.615(2) 0.372(2) 0.358(2) 3.2(1) 0.267
P3 P5+ 4 e 0.039(2) 0.272(2) 0.499(2) 3.2(1) 0.733
V3 V5+ 4 e 0.039(2) 0.272(2) 0.499(2) 3.2(1) 0.267
O1 O2- 4 e 0.676(6) 0.422(4) 0.459(4) 3.2(1) 1.
O2 O2- 4 e 0.684(5) 0.237(4) 0.658(4) 3.2(1) 1.
O3 O2- 4 e 0.937(5) 0.371(5) 0.564(4) 3.2(1) 1.
O4 O2- 4 e 0.568(4) 0.5605(4) 0.669(4) 3.2(1) 1.
O5 O2- 4 e 0.844(5) 0.463(5) 0.778(3) 3.2(1) 1.
O6 O2- 4 e 0.849(6) 0.771(5) 0.601(4) 3.2(1) 1.
O7 O2- 4 e 0.673(4) 0.034(5) 0.539(4) 3.2(1) 1.
O8 O2- 4 e 0.638(5) 0.199(5) 0.306(4) 3.2(1) 1.
O9 O2- 4 e 0.911(5) 0.214(4) 0.402(4) 3.2(1) 1.
O10 O2- 4 e 0.544(6) 0.892(4) 0.343(4) 3.2(1) 1.
O11 O2- 4 e 0.776(5) -0.007(5) 0.207(4) 3.2(1) 1.
O12 O2- 4 e 0.845(5) 0.845(5) 0.423(4) 3.2(1) 1.
#End of TTdata_188749-ICSD
#
